 vasp.5.4.4.18Apr17-6-g9f103f2a35 (build Sep 27 2018 13:01:44) gamma-only       
  
 executed on      LLNL_Quartz_ifc date 2022.11.06  21:50:47
 running on  288 total cores
 distrk:  each k-point on  288 cores,    1 groups
 distr:  one band on NCORES_PER_BAND=  36 cores,    8 groups


--------------------------------------------------------------------------------------------------------


 INCAR:
 POTCAR:    PAW_PBE Si 05Jan2001                  

 ----------------------------------------------------------------------------- 
|                                                                             |
|           W    W    AA    RRRRR   N    N  II  N    N   GGGG   !!!           |
|           W    W   A  A   R    R  NN   N  II  NN   N  G    G  !!!           |
|           W    W  A    A  R    R  N N  N  II  N N  N  G       !!!           |
|           W WW W  AAAAAA  RRRRR   N  N N  II  N  N N  G  GGG   !            |
|           WW  WW  A    A  R   R   N   NN  II  N   NN  G    G                |
|           W    W  A    A  R    R  N    N  II  N    N   GGGG   !!!           |
|                                                                             |
|      For optimal performance we recommend to set                            |
|        NCORE= 4 - approx SQRT( number of cores)                             |
|      NCORE specifies how many cores store one orbital (NPAR=cpu/NCORE).     |
|      This setting can  greatly improve the performance of VASP for DFT.     |
|      The default,   NCORE=1            might be grossly inefficient         |
|      on modern multi-core architectures or massively parallel machines.     |
|      Do your own testing !!!!                                               |
|      Unfortunately you need to use the default for GW and RPA calculations. |
|      (for HF NCORE is supported but not extensively tested yet)             |
|                                                                             |
 ----------------------------------------------------------------------------- 

 POTCAR:    PAW_PBE Si 05Jan2001                  
   VRHFIN =Si: s2p2                                                             
   LEXCH  = PE                                                                  
   EATOM  =   103.0669 eV,    7.5752 Ry                                         
                                                                                
   TITEL  = PAW_PBE Si 05Jan2001                                                
   LULTRA =        F    use ultrasoft PP ?                                      
   IUNSCR =        1    unscreen: 0-lin 1-nonlin 2-no                           
   RPACOR =    1.500    partial core radius                                     
   POMASS =   28.085; ZVAL   =    4.000    mass and valenz                      
   RCORE  =    1.900    outmost cutoff radius                                   
   RWIGS  =    2.480; RWIGS  =    1.312    wigner-seitz radius (au A)           
   ENMAX  =  245.345; ENMIN  =  184.009 eV                                      
   ICORE  =        2    local potential                                         
   LCOR   =        T    correct aug charges                                     
   LPAW   =        T    paw PP                                                  
   EAUG   =  322.069                                                            
   DEXC   =    0.000                                                            
   RMAX   =    1.950    core radius for proj-oper                               
   RAUG   =    1.300    factor for augmentation sphere                          
   RDEP   =    1.993    radius for radial grids                                 
   RDEPT  =    1.837    core radius for aug-charge                              
                                                                                
   Atomic configuration                                                         
    6 entries                                                                   
     n  l   j            E        occ.                                          
     1  0  0.50     -1785.8828   2.0000                                         
     2  0  0.50      -139.4969   2.0000                                         
     2  1  1.50       -95.5546   6.0000                                         
     3  0  0.50       -10.8127   2.0000                                         
     3  1  0.50        -4.0811   2.0000                                         
     3  2  1.50        -4.0817   0.0000                                         
   Description                                                                  
     l       E           TYP  RCUT    TYP  RCUT                                 
     0    -10.8127223     23  1.900                                             
     0     -7.6451159     23  1.900                                             
     1     -4.0811372     23  1.900                                             
     1      2.4879257     23  1.900                                             
     2     -4.0817478      7  1.900                                             
  local pseudopotential read in
  partial core-charges read in
  partial kinetic energy density read in
  atomic valenz-charges read in
  non local Contribution for L=           0  read in
    real space projection operators read in
  non local Contribution for L=           0  read in
    real space projection operators read in
  non local Contribution for L=           1  read in
    real space projection operators read in
  non local Contribution for L=           1  read in
    real space projection operators read in
    PAW grid and wavefunctions read in
 
   number of l-projection  operators is LMAX  =           4
   number of lm-projection operators is LMMAX =           8
 
 Optimization of the real space projectors (new method)

 maximal supplied QI-value         = 19.84
 optimisation between [QCUT,QGAM] = [ 10.12, 20.44] = [ 28.68,116.96] Ry 
 Optimized for a Real-space Cutoff    1.38 Angstroem

   l    n(q)    QCUT    max X(q) W(low)/X(q) W(high)/X(q)  e(spline) 
   0      8    10.119   159.560    0.58E-04    0.11E-03    0.54E-07
   0      8    10.119   115.863    0.56E-04    0.11E-03    0.54E-07
   1      8    10.119    88.339    0.22E-03    0.17E-03    0.19E-06
   1      8    10.119    48.592    0.22E-03    0.17E-03    0.18E-06
  PAW_PBE Si 05Jan2001                  :
 energy of atom  1       EATOM= -103.0669
 kinetic energy error for atom=    0.0012 (will be added to EATOM!!)
 
 
 POSCAR: Si                                      
  positions in direct lattice
  velocities in cartesian coordinates
 exchange correlation table for  LEXCH =        8
   RHO(1)=    0.500       N(1)  =     2000
   RHO(2)=  100.500       N(2)  =     4000

 VTST: version 3.1, (03/28/14)

 CHAIN: initializing optimizer
 
 OPT: Using VASP Conjugate-Gradient optimizer
 CHAIN: Read ICHAIN            0
 
 POSCAR: Si                                      
  positions in direct lattice
  velocities in cartesian coordinates
 


--------------------------------------------------------------------------------------------------------


 ion  position               nearest neighbor table
     1  0.995  0.680  0.247-   213 2.35   620 2.37   377 2.38   497 2.45
     2  0.529  0.674  0.714-   985 2.36   370 2.36   579 2.40   629 2.42
     3  0.722  0.544  0.581-   440 2.40   235 2.48   905 2.51   311 2.60
     4  0.627  0.300  0.615-   610 2.36   277 2.37   613 2.38   507 2.40
     5  0.467  0.463  0.484-   779 2.32   465 2.34   820 2.35   940 2.43
     6  0.321  0.602  0.025-   514 2.36   825 2.47   658 2.55   679 2.56
     7  0.504  0.863  0.974-   846 2.32   958 2.33   359 2.35   439 2.37
     8  0.894  0.823  0.457-   432 2.37   364 2.37   433 2.38   336 2.40
     9  0.027  0.939  0.223-   452 2.30   106 2.35   566 2.37   887 2.39
    10  0.965  0.997  0.986-   980 2.33   263 2.34   894 2.36   609 2.41
    11  0.954  0.866  0.971-   193 2.36   187 2.38   212 2.39   894 2.47
    12  0.899  0.460  0.461-   797 2.34   676 2.37   978 2.43   939 2.50
    13  0.435  0.588  0.417-   465 2.35    34 2.38   428 2.39   165 2.39
    14  0.319  0.098  0.843-   556 2.36   600 2.39   713 2.42   192 2.52
    15  0.802  0.433  0.825-    95 2.36   547 2.42   273 2.44   220 2.46
    16  0.583  0.785  0.287-   438 2.36   822 2.39   716 2.42   266 2.43
    17  0.790  0.629  0.175-   890 2.30   129 2.34   482 2.38   564 2.46   662 3.12
    18  0.206  0.338  0.952-   723 2.36   535 2.40   867 2.42   303 2.42
    19  0.906  0.377  0.186-   350 2.34   727 2.38   831 2.40   794 2.40
    20  0.313  0.469  0.043-   431 2.37   601 2.44   825 2.45   206 2.49
    21  0.923  0.660  0.052-   180 2.34   388 2.41   217 2.43   260 2.47
    22  0.113  0.852  0.259-   106 2.32   135 2.33   888 2.40   147 2.47
    23  0.178  0.091  0.646-    70 2.37   681 2.40   292 2.54    64 2.58
    24  0.379  0.517  0.865-   649 2.38   921 2.43   842 2.46   815 2.58
    25  0.011  0.539  0.689-   567 2.37   608 2.42   634 2.45   174 2.58
    26  0.989  0.352  0.761-   289 2.41   561 2.44   823 2.44   873 2.45
    27  0.469  0.662  0.132-   265 2.31   140 2.39   988 2.39   882 2.43   153 2.80
    28  0.814  0.685  0.338-   962 2.43   203 2.43   591 2.45   319 2.52
    29  0.638  0.119  0.559-   991 2.28   506 2.30   736 2.33   554 2.33
    30  0.991  0.805  0.200-   566 2.30   147 2.35   352 2.38   377 2.39
    31  0.175  0.786  0.515-   849 2.36   758 2.42   859 2.45   494 2.46
    32  0.607  0.681  0.828-   297 2.38   526 2.42   579 2.46    96 2.49
    33  0.618  0.110  0.118-   722 2.29   304 2.34   365 2.36   755 2.38
    34  0.355  0.602  0.444-    13 2.38   965 2.39   401 2.41    71 2.53
    35  0.298  0.222  0.454-   405 2.38   704 2.41   231 2.43   599 2.46
    36  0.568  0.977  0.127-   365 2.32   105 2.34   799 2.36    84 2.45
    37  0.383  0.238  0.733-   378 2.37   944 2.38   108 2.41   520 2.41
    38  0.253  0.971  0.830-   464 2.38   816 2.39   713 2.39   399 2.42
    39  0.787  0.101  0.656-   541 2.39   753 2.44   678 2.45   295 2.52   373 3.07
    40  0.399  0.015  0.052-   752 2.36   895 2.38   911 2.47   945 2.49
    41  0.395  0.258  0.001-   114 2.37   444 2.40   255 2.45   639 2.48
    42  0.372  0.924  0.326-   437 2.27   750 2.30   148 2.33   309 3.02
    43  0.168  0.026  0.415-   885 2.32   847 2.33   913 2.35   163 2.36
    44  0.320  0.678  0.833-   518 2.33   621 2.35   576 2.37   812 2.42
    45  0.045  0.470  0.948-   151 2.36   606 2.38    69 2.39   891 2.42
    46  0.851  0.396  0.708-   883 2.35   654 2.36   873 2.41   273 2.42
    47  0.517  0.277  0.525-   532 2.38   610 2.38   589 2.39   121 2.55
    48  0.241  0.175  0.928-   228 2.37   600 2.47   367 2.48   218 2.66
    49  0.543  0.740  0.916-   958 2.32   427 2.35   768 2.39   415 2.50
    50  0.353  0.177  0.327-   677 2.43   231 2.47   481 2.56   955 2.59   776 2.62
    51  0.048  0.663  0.036-   388 2.35   663 2.35   138 2.36    57 2.45
    52  0.295  0.088  0.068-   752 2.32   764 2.35   562 2.37   137 2.43
    53  0.887  0.726  0.826-   230 2.39   449 2.42   314 2.45   333 2.48
    54  0.997  0.772  0.528-   394 2.34   435 2.40   250 2.41   336 2.54
    55  0.250  0.793  0.403-   270 2.33   279 2.35    78 2.40   849 2.41
    56  0.164  0.886  0.706-   795 2.33   254 2.42   545 2.42   974 2.48
    57  0.070  0.683  0.119-   766 2.32   176 2.44    51 2.45   213 2.47
    58  0.213  0.417  0.333-    63 2.37   653 2.40   131 2.45   272 2.59
    59  0.990  0.425  0.264-   735 2.37   350 2.38   380 2.38   865 2.40
    60  0.835  0.172  0.031-   633 2.34   244 2.42   711 2.45   696 2.54
    61  0.085  0.116  0.543-   878 2.36   909 2.38   403 2.46   292 2.49
    62  0.682  0.029  0.848-   515 2.33   499 2.34   683 2.38   555 2.49
    63  0.298  0.423  0.336-    58 2.37   961 2.45   672 2.55   760 2.60   565 2.64   830 3.07
    64  0.195  0.002  0.630-   199 2.37   781 2.39   795 2.41    23 2.58
    65  0.747  0.792  0.781-   841 2.36   261 2.36   769 2.36   804 2.38
    66  0.256  0.188  0.133-   562 2.35   404 2.36   471 2.42   860 2.43
    67  0.580  0.476  0.579-   666 2.32   457 2.34   940 2.43   905 2.43
    68  0.889  0.246  0.854-   744 2.38   338 2.39   700 2.54   817 2.54
    69  0.003  0.441  0.880-    45 2.39   296 2.39   289 2.40   472 2.42
    70  0.258  0.112  0.665-   737 2.36    23 2.37   120 2.38   411 2.38
    71  0.378  0.625  0.529-   763 2.45   490 2.45   491 2.48    34 2.53
    72  0.499  0.350  0.634-   589 2.31   578 2.38   413 2.40   507 2.47
    73  0.477  0.763  0.042-   958 2.34   265 2.46   391 2.48   183 2.51
    74  0.884  0.128  0.539-   753 2.40    75 2.46   552 2.52    90 2.52
    75  0.948  0.071  0.561-   909 2.44   142 2.46    74 2.46   574 2.48
    76  0.102  0.384  0.388-   519 2.39   675 2.42   272 2.43   898 2.43
    77  0.095  0.852  0.407-   888 2.36   320 2.43   746 2.46   563 2.48
    78  0.277  0.720  0.439-   922 2.36   927 2.36   401 2.38    55 2.40
    79  0.132  0.599  0.284-   875 2.41   112 2.41   219 2.42   398 2.43   896 3.10
    80  0.856  0.958  0.599-   133 2.41   505 2.42   574 2.45   240 2.47
    81  0.255  0.274  0.326-   760 2.34   782 2.37   787 2.38   231 2.43
    82  0.677  0.146  0.769-   683 2.34   225 2.35   590 2.39   777 2.40
    83  0.397  0.684  0.947-   576 2.33   476 2.38   679 2.43   322 2.44
    84  0.519  0.984  0.200-    36 2.45   480 2.48   674 2.48   994 2.54
    85  0.030  0.799  0.656-   971 2.36   435 2.37   721 2.39   542 2.44
    86  0.203  0.651  0.095-   658 2.37   756 2.41   766 2.44   843 2.61
    87  0.964  0.907  0.705-   614 2.37   866 2.38   611 2.39   542 2.43
    88  0.346  0.544  0.288-   788 2.31   961 2.38   602 2.38   470 2.42
    89  0.912  0.106  0.925-   263 2.34   641 2.42   976 2.45   711 2.48
    90  0.872  0.211  0.573-   373 2.42   803 2.43    74 2.52   286 2.57
    91  0.432  0.160  0.089-   868 2.34   884 2.42   444 2.43   945 2.45
    92  0.024  0.445  0.568-   741 2.37   634 2.39   390 2.44   978 2.48
    93  0.721  0.017  0.566-   897 2.31   736 2.35   505 2.40   366 2.45
    94  0.627  0.342  0.732-   385 2.39   580 2.46   507 2.46   277 2.47   864 2.68
    95  0.822  0.508  0.861-   957 2.33    15 2.36   848 2.39   984 2.44
    96  0.645  0.757  0.855-   427 2.36   804 2.39   134 2.49    32 2.49
    97  0.364  0.710  0.718-   346 2.35   548 2.37   168 2.39   621 2.44
    98  0.470  0.345  0.412-   779 2.36   948 2.37   446 2.39   532 2.42
    99  0.921  0.363  0.553-   919 2.33   978 2.34   349 2.35   685 2.35
   100  1.000  0.214  0.957-   160 2.40   904 2.41   641 2.41   817 2.49
   101  0.828  0.424  0.293-   792 2.35   384 2.39   794 2.40   692 2.43
   102  0.546  0.942  0.864-   846 2.40   237 2.41   646 2.42   947 2.51
   103  0.330  0.533  0.614-   128 2.35   743 2.40   673 2.40   490 2.45
   104  0.692  0.834  0.188-   925 2.36   488 2.37   266 2.40   806 2.49
   105  0.646  0.955  0.149-   925 2.33    36 2.34   495 2.35   698 2.40
   106  0.108  0.919  0.210-    22 2.32     9 2.35   393 2.41   204 2.44
   107  0.349  0.352  0.663-   224 2.38   478 2.40   413 2.48   378 2.52
   108  0.406  0.190  0.801-   192 2.35   801 2.39    37 2.41   923 2.42
   109  0.856  0.053  0.108-   194 2.28   473 2.33   244 2.33   783 2.37
   110  0.881  0.667  0.494-   720 2.33   232 2.35   318 2.36   331 2.40
   111  0.507  0.489  0.707-   666 2.41   970 2.41   981 2.43   216 2.44
   112  0.060  0.553  0.268-    79 2.41   256 2.42   926 2.43   896 2.49
   113  0.400  0.253  0.597-   224 2.35   520 2.41   121 2.42   578 2.44
   114  0.468  0.276  0.039-   509 2.34   884 2.36    41 2.37   906 2.37
   115  0.875  0.899  0.312-   982 2.34   360 2.34   326 2.34   487 2.43
   116  0.619  0.531  0.193-   770 2.34   854 2.36   375 2.41   501 2.43
   117  0.712  0.171  0.934-   871 2.41   604 2.42   586 2.42   950 2.44
   118  0.312  0.093  0.533-   120 2.35   335 2.39   395 2.42   599 2.44
   119  0.683  0.688  0.475-   337 2.42   592 2.42   573 2.44   529 2.45
   120  0.322  0.084  0.616-   118 2.35   808 2.36    70 2.38   451 2.39
   121  0.448  0.217  0.535-   998 2.41   113 2.42   248 2.46    47 2.55
   122  0.674  0.558  0.994-   486 2.39   412 2.42   648 2.44   251 2.50
   123  0.977  0.515  0.160-   256 2.34   422 2.34   865 2.36   227 2.39
   124  0.214  0.695  0.596-   859 2.36   734 2.39   714 2.49   161 2.52
   125  0.526  0.247  0.766-   944 2.39   580 2.39   923 2.41   202 2.44
   126  0.095  0.449  0.748-   313 2.37   174 2.40   612 2.40   823 2.44
   127  0.718  0.226  0.131-   934 2.36   242 2.40   553 2.44   696 2.46
   128  0.406  0.502  0.593-   103 2.35   820 2.42   491 2.45   970 2.46
   129  0.749  0.602  0.243-    17 2.34   738 2.36   694 2.44   962 2.45
   130  0.548  0.824  0.773-   949 2.37   134 2.39   383 2.42   415 2.42
   131  0.188  0.393  0.252-   144 2.32   551 2.36   916 2.38    58 2.45
   132  0.537  0.621  0.227-   770 2.34   882 2.35   740 2.37   572 2.54
   133  0.903  0.889  0.578-   432 2.39    80 2.41   570 2.44   614 2.46
   134  0.624  0.833  0.812-   237 2.38   769 2.38   130 2.39    96 2.49
   135  0.194  0.837  0.275-    22 2.33   943 2.34   270 2.40   246 2.41
   136  0.219  0.764  0.008-   502 2.36   843 2.37   966 2.40   530 2.41
   137  0.334  0.086  0.146-   860 2.34   764 2.35   615 2.40    52 2.43
   138  0.107  0.669  0.974-    51 2.36   843 2.43   617 2.46   201 2.54   638 3.13
   139  0.231  0.538  0.403-   593 2.38   653 2.45   749 2.46   965 2.49
   140  0.471  0.576  0.135-   594 2.35   572 2.39    27 2.39   302 2.46
   141  0.345  0.880  0.935-   369 2.37   221 2.39   773 2.39   222 2.47
   142  0.967  0.026  0.488-   900 2.40   963 2.41   718 2.42    75 2.46
   143  0.333  0.350  0.929-   639 2.36   303 2.40   719 2.44   513 2.45
   144  0.143  0.324  0.248-   131 2.32   323 2.35   448 2.39   898 2.40
   145  0.612  0.851  0.400-   274 2.35   198 2.35   902 2.39   438 2.44
   146  0.785  0.310  0.035-   453 2.38   687 2.44   697 2.48   696 2.49
   147  0.072  0.788  0.214-    30 2.35   620 2.35   176 2.45    22 2.47
   148  0.413  0.967  0.386-    42 2.33   618 2.36   642 2.41   420 2.46
   149  0.494  0.066  0.433-   587 2.37   778 2.42   819 2.43   510 2.46
   150  0.279  0.038  0.285-   402 2.43   964 2.44   534 2.44   309 2.50
   151  0.012  0.433  0.017-    45 2.36   275 2.40   836 2.44   656 2.45
   152  0.003  0.329  0.087-   170 2.33   831 2.37   275 2.37   686 2.41
   153  0.528  0.739  0.156-   882 2.25   183 2.30   317 2.35    27 2.80
   154  0.295  0.928  0.133-   450 2.37   911 2.42   837 2.44   577 2.45
   155  0.520  0.519  0.851-   229 2.38   356 2.41   216 2.46   649 2.54
   156  0.901  0.643  0.694-   870 2.42   381 2.45   608 2.54   214 2.54
   157  0.071  0.896  0.063-   454 2.37   796 2.38   527 2.40   204 2.43
   158  0.316  0.303  0.194-   281 2.40   423 2.41   802 2.41   787 2.52
   159  0.050  0.506  0.447-   416 2.33   741 2.37   675 2.42   493 2.45
   160  0.083  0.236  0.960-   807 2.34   886 2.39   100 2.40   784 2.41
   161  0.155  0.746  0.642-   644 2.33   721 2.36   974 2.40   124 2.52
   162  0.202  0.591  0.669-   876 2.35   376 2.39   734 2.39   389 2.46
   163  0.186  0.047  0.495-    43 2.36   878 2.37   397 2.40   395 2.44   913 3.11
   164  0.992  0.255  0.517-   349 2.36   209 2.37   803 2.41   857 2.45
   165  0.467  0.550  0.347-   602 2.34   245 2.39    13 2.39   960 2.45
   166  0.704  0.854  0.967-   189 2.34   238 2.39   571 2.41   521 2.42
   167  0.215  0.552  0.538-   593 2.34   876 2.35   673 2.40   714 2.41
   168  0.399  0.672  0.650-   985 2.35    97 2.39   492 2.46   490 2.54
   169  0.530  0.664  0.354-   740 2.36   428 2.38   716 2.41   960 2.42
   170  0.968  0.256  0.111-   152 2.33   811 2.37   904 2.40   538 2.41
   171  0.421  0.883  0.099-   439 2.38   517 2.46   391 2.51   911 2.56
   172  0.739  0.551  0.441-   235 2.32   324 2.36   791 2.43   592 2.45
   173  0.262  0.647  0.336-   269 2.36   749 2.39   401 2.39   470 2.39
   174  0.059  0.525  0.766-   126 2.40   296 2.43   524 2.46    25 2.58
   175  0.578  0.350  0.221-   954 2.37  1000 2.44   626 2.48   329 2.50
   176  0.091  0.767  0.131-    57 2.44   147 2.45   456 2.48   447 2.54
   177  0.655  0.485  0.314-   929 2.33   501 2.41   443 2.41   357 2.42
   178  0.936  0.868  0.826-   193 2.32   475 2.41   314 2.42   611 2.59
   179  0.416  0.661  0.284-   602 2.32   717 2.34   740 2.35   549 2.38
   180  0.927  0.656  0.136-    21 2.34   213 2.40   890 2.40   468 2.44
   181  0.292  0.899  0.684-   268 2.40   795 2.42   660 2.44   839 2.66
   182  0.822  0.761  0.683-   197 2.36   559 2.38   261 2.40   381 2.56
   183  0.550  0.785  0.091-   153 2.30   851 2.38   684 2.39    73 2.51
   184  0.765  0.973  0.113-   560 2.34   495 2.36   194 2.36   701 2.37
   185  0.899  0.049  0.699-   574 2.44   541 2.48   908 2.50   790 2.61
   186  0.792  0.304  0.227-   692 2.41   727 2.47   729 2.48   242 2.54
   187  0.033  0.844  0.948-   454 2.34    11 2.38   695 2.46   732 2.46
   188  0.453  0.656  0.820-   579 2.37   621 2.41   892 2.42   322 2.44
   189  0.632  0.817  0.990-   427 2.33   166 2.34   359 2.37   851 2.38
   190  0.539  0.204  0.208-   516 2.38   937 2.38   755 2.41   813 2.41   728 3.05
   191  0.511  0.921  0.451-   198 2.30   618 2.35   544 2.36   510 2.38
   192  0.395  0.107  0.795-   108 2.35   603 2.39    14 2.52   855 2.57
   193  0.938  0.908  0.899-   178 2.32   498 2.35    11 2.36   609 2.37
   194  0.788  0.039  0.064-   109 2.28   869 2.32   775 2.36   184 2.36
   195  0.375  0.121  0.968-   600 2.37   444 2.39   752 2.40   362 2.43
   196  0.649  0.897  0.630-   496 2.33   306 2.38   280 2.48   907 2.53
   197  0.773  0.745  0.615-   182 2.36   650 2.37   705 2.37   539 2.54
   198  0.593  0.920  0.445-   903 2.30   191 2.30   979 2.31   145 2.35
   199  0.125  0.977  0.588-   878 2.34    64 2.37   236 2.41   429 2.43
   200  0.043  0.651  0.369-   761 2.35   308 2.41   875 2.47   497 2.49
   201  0.134  0.586  0.947-   459 2.38   288 2.48   891 2.54   138 2.54   638 2.56
   202  0.576  0.212  0.703-   277 2.36   225 2.38   987 2.38   125 2.44
   203  0.793  0.735  0.407-   337 2.36   232 2.37   433 2.39    28 2.43
   204  0.129  0.897  0.128-   396 2.39   157 2.43   106 2.44   447 2.50
   205  0.662  0.203  0.441-   850 2.45   489 2.47   506 2.48   339 2.52
   206  0.332  0.385  0.068-   342 2.36    20 2.49   639 2.50   423 2.51
   207  0.962  0.196  0.766-   733 2.36   334 2.38   338 2.39   561 2.46
   208  0.945  0.284  0.665-   919 2.38   671 2.42   561 2.43   803 2.43
   209  0.978  0.181  0.477-   164 2.37   588 2.43   403 2.44
   210  0.473  0.324  0.911-   906 2.37   719 2.41   255 2.44   241 2.49
   211  0.168  0.338  0.811-   535 2.36   421 2.38   969 2.39   313 2.42
   212  0.896  0.803  0.972-   659 2.38    11 2.39   640 2.42   466 2.43
   213  0.006  0.648  0.169-     1 2.35   256 2.40   180 2.40    57 2.47
   214  0.841  0.608  0.753-   333 2.40   848 2.42   156 2.54   936 2.63
   215  0.476  0.940  0.656-   316 2.39   786 2.45   528 2.46   910 2.47
   216  0.519  0.550  0.769-   892 2.37   111 2.44   629 2.44   155 2.46
   217  0.942  0.578  0.031-   663 2.40   227 2.40    21 2.43   845 2.48
   218  0.174  0.110  0.949-   434 2.43   624 2.50   537 2.52    48 2.66
   219  0.136  0.669  0.232-   387 2.38   620 2.41    79 2.42   766 2.47
   220  0.740  0.378  0.856-   669 2.42    15 2.46   355 2.50   973 2.52
   221  0.358  0.806  0.978-   476 2.35   141 2.39   391 2.47   966 2.49
   222  0.411  0.937  0.921-   846 2.37   371 2.41   895 2.45   141 2.47
   223  0.551  0.995  0.344-   587 2.33   674 2.37   618 2.42   979 2.46
   224  0.352  0.321  0.583-   113 2.35   975 2.38   107 2.38   967 2.44
   225  0.623  0.141  0.705-   477 2.35   554 2.35    82 2.35   202 2.38
   226  0.601  0.411  0.467-   287 2.38   852 2.42   467 2.43   940 2.43
   227  0.925  0.520  0.092-   836 2.35   259 2.37   123 2.39   217 2.40
   228  0.227  0.210  0.004-   867 2.36    48 2.37   562 2.42   784 2.53
   229  0.496  0.438  0.835-   981 2.36   155 2.38   921 2.41   241 2.45
   230  0.957  0.737  0.778-    53 2.39   475 2.45   234 2.49   381 2.53
   231  0.280  0.204  0.370-   628 2.39    35 2.43    81 2.43    50 2.47   776 3.14
   232  0.809  0.711  0.487-   529 2.35   110 2.35   203 2.37   705 2.42
   233  0.159  0.439  0.077-   307 2.33   430 2.43   253 2.43   656 2.44
   234  0.035  0.692  0.776-   821 2.40   293 2.42   392 2.44   230 2.49
   235  0.769  0.579  0.514-   172 2.32   529 2.35   331 2.42     3 2.48
   236  0.068  0.980  0.653-   866 2.36   315 2.39   199 2.41   545 2.41
   237  0.624  0.907  0.854-   134 2.38   515 2.39   102 2.41   521 2.42
   238  0.726  0.869  0.049-   426 2.36   166 2.39   495 2.41   488 2.46
   239  0.515  0.221  0.411-   532 2.35   605 2.35   489 2.40   998 2.44
   240  0.794  0.913  0.644-   840 2.41    80 2.47   559 2.48   280 2.55
   241  0.535  0.363  0.859-   853 2.42   229 2.45   210 2.49   580 2.56
   242  0.710  0.272  0.203-   127 2.40   186 2.54   247 2.58  1000 2.60
   243  0.196  0.677  0.855-   754 2.34   518 2.40   278 2.42   638 2.52
   244  0.888  0.125  0.080-   109 2.33    60 2.42   724 2.45   372 2.45
   245  0.440  0.469  0.347-   779 2.36   165 2.39   739 2.43   961 2.47
   246  0.253  0.900  0.271-   437 2.40   964 2.41   135 2.41   837 2.44
   247  0.700  0.192  0.248-   934 2.40   569 2.46   670 2.47   242 2.58
   248  0.439  0.138  0.573-   536 2.33   808 2.39   335 2.42   121 2.46
   249  0.820  0.358  0.425-   956 2.38   425 2.40   384 2.44   939 2.45
   250  0.040  0.705  0.564-   504 2.34   400 2.37   721 2.41    54 2.41
   251  0.600  0.515  0.969-   356 2.41   814 2.45   122 2.50   298 2.53
   252  0.112  0.036  0.136-   828 2.34   989 2.37   546 2.42   396 2.42
   253  0.185  0.475  0.002-   459 2.32   606 2.36   233 2.43   431 2.44
   254  0.202  0.851  0.776-   992 2.39    56 2.42   584 2.44   816 2.46
   255  0.433  0.248  0.922-   801 2.37   348 2.42   210 2.44    41 2.45
   256  0.036  0.569  0.186-   511 2.32   123 2.34   213 2.40   112 2.42
   257  0.886  0.018  0.299-   310 2.33   522 2.34   880 2.39   982 2.42
   258  0.891  0.194  0.281-   627 2.37   986 2.39   946 2.41   729 2.43
   259  0.841  0.527  0.108-   890 2.37   227 2.37   995 2.41   877 2.48
   260  0.835  0.649  0.054-   918 2.41   890 2.42   757 2.42    21 2.47   564 2.91
   261  0.765  0.722  0.736-    65 2.36   333 2.39   182 2.40   767 2.54
   262  0.915  0.601  0.887-   730 2.40   845 2.41   449 2.47   848 2.54
   263  0.902  0.053  0.989-    89 2.34    10 2.34   869 2.38
   264  0.723  0.610  0.869-   957 2.34   582 2.35   412 2.44   706 2.46
   265  0.462  0.676  0.051-    27 2.31   712 2.40   679 2.40    73 2.46
   266  0.664  0.786  0.254-   340 2.32   104 2.40   424 2.42    16 2.43
   267  0.268  0.963  0.394-   327 2.30   437 2.35   885 2.39   402 2.43
   268  0.342  0.902  0.754-   708 2.34   703 2.37   816 2.39   181 2.40
   269  0.247  0.721  0.297-   173 2.36   387 2.37   270 2.42   619 2.43
   270  0.198  0.780  0.339-    55 2.33   135 2.40   269 2.42   746 2.49
   271  0.581  0.160  0.322-   569 2.37   813 2.38   354 2.40   489 2.44
   272  0.183  0.394  0.418-   872 2.37    76 2.43   525 2.45    58 2.59   565 2.73
   273  0.776  0.426  0.742-   632 2.38    46 2.42    15 2.44   864 2.45
   274  0.578  0.777  0.424-   145 2.35   716 2.37   893 2.40   573 2.44
   275  0.998  0.350  0.004-   807 2.36   152 2.37   151 2.40   759 2.47
   276  0.812  0.140  0.198-   473 2.34   934 2.35   627 2.40   724 2.42
   277  0.642  0.265  0.691-   202 2.36     4 2.37   651 2.38    94 2.47
   278  0.175  0.619  0.794-   524 2.33   368 2.35   389 2.37   243 2.42
   279  0.324  0.828  0.384-    55 2.35   805 2.41   437 2.43   952 2.45
   280  0.726  0.895  0.586-   897 2.41   540 2.48   196 2.48   240 2.55
   281  0.345  0.355  0.257-   623 2.37   672 2.38   158 2.40   760 2.41
   282  0.960  0.026  0.795-   747 2.32   790 2.43   976 2.49   611 2.57
   283  0.075  0.176  0.154-   879 2.46   862 2.52   811 2.55   707 2.66   989 2.75
   284  0.762  0.039  0.947-   499 2.32   557 2.36   869 2.37   950 2.42
   285  0.079  0.222  0.633-   715 2.38   598 2.49   407 2.57   292 2.72
   286  0.823  0.279  0.536-   956 2.32   685 2.37   914 2.40    90 2.57
   287  0.562  0.457  0.407-   779 2.38   226 2.38   929 2.39   445 2.48
   288  0.151  0.533  0.878-   524 2.40   688 2.43   484 2.45   201 2.48
   289  0.030  0.374  0.834-   299 2.32   313 2.34    69 2.40    26 2.41
   290  0.788  0.918  0.795-   997 2.31   841 2.33   915 2.33   840 2.62   908 3.02
   291  0.381  0.402  0.786-   921 2.37   844 2.45   953 2.46   726 2.57
   292  0.143  0.159  0.596-    61 2.49   827 2.53    23 2.54   285 2.72
   293  0.102  0.747  0.781-   680 2.37   754 2.41   234 2.42   644 2.42
   294  0.850  0.931  0.996-   498 2.34   869 2.38   426 2.38   894 2.50
   295  0.740  0.040  0.703-   366 2.37   840 2.39   683 2.49    39 2.52
   296  0.999  0.510  0.828-   798 2.37    69 2.39   730 2.42   174 2.43
   297  0.646  0.635  0.768-   629 2.35    32 2.38   706 2.38   767 2.41
   298  0.525  0.545  0.010-   302 2.33   712 2.41   417 2.43   251 2.53
   299  0.038  0.305  0.881-   289 2.32   807 2.38   817 2.42   886 2.42
   300  0.169  0.974  0.020-   527 2.36   414 2.39   624 2.45   396 2.48
   301  0.698  0.915  0.299-   424 2.39   442 2.40   409 2.40   436 2.42
   302  0.536  0.533  0.092-   374 2.33   298 2.33   375 2.36   140 2.46
   303  0.263  0.399  0.926-   431 2.37   793 2.39   143 2.40    18 2.42
   304  0.629  0.166  0.056-   553 2.30    33 2.34   361 2.35   871 2.46
   305  0.722  0.252  0.824-   669 2.34   777 2.34   586 2.37   901 2.45
   306  0.605  0.865  0.565-   903 2.38   196 2.38   636 2.40   483 2.43
   307  0.147  0.356  0.071-   233 2.33   748 2.37   686 2.39   723 2.39
   308  0.058  0.733  0.345-   746 2.40   620 2.40   200 2.41   581 2.44
   309  0.361  0.011  0.262-   615 2.43   642 2.48   150 2.50   750 2.51    42 3.02
   310  0.904  0.041  0.220-   597 2.31   257 2.33   473 2.34   731 2.40
   311  0.723  0.610  0.647-   650 2.37   767 2.56   936 2.56     3 2.60   993 2.62
   312  0.035  0.103  0.004-   980 2.35   641 2.40   372 2.47   537 2.48
   313  0.108  0.400  0.816-   289 2.34   688 2.36   126 2.37   211 2.42
   314  0.869  0.812  0.833-   841 2.37   466 2.40   178 2.42    53 2.45
   315  0.049  0.062  0.670-   236 2.39   681 2.41   790 2.43   909 2.46
   316  0.537  0.994  0.631-   215 2.39   907 2.42   834 2.42   774 2.50
   317  0.464  0.777  0.195-   153 2.35   822 2.40   517 2.41   988 2.42
   318  0.936  0.689  0.434-   110 2.36   761 2.40   336 2.42   319 2.47
   319  0.903  0.677  0.352-   318 2.47   951 2.48    28 2.52   497 2.57   585 2.89
   320  0.155  0.901  0.446-   849 2.35   885 2.39    77 2.43   429 2.48
   321  0.278  0.880  0.502-   327 2.36   849 2.36   805 2.36   839 2.46
   322  0.454  0.633  0.905-   768 2.38   649 2.40    83 2.44   188 2.44
   323  0.077  0.336  0.197-   144 2.35   972 2.37   735 2.37   686 2.40
   324  0.735  0.466  0.445-   172 2.36   357 2.43   852 2.44   939 2.51
   325  0.353  0.029  0.720-   855 2.40   708 2.41   451 2.41   737 2.47
   326  0.853  0.820  0.329-   115 2.34   330 2.35   433 2.38   951 2.48
   327  0.298  0.957  0.470-   267 2.30   321 2.36   420 2.37   395 2.37
   328  0.851  0.223  0.416-   956 2.37   508 2.44   460 2.48   588 2.51
   329  0.523  0.322  0.156-   937 2.41   682 2.49   938 2.49   175 2.50   509 2.66
   330  0.784  0.809  0.283-   591 2.33   806 2.35   326 2.35   424 2.35
   331  0.855  0.585  0.502-   500 2.39   110 2.40   235 2.42   797 2.48   585 2.72
   332  0.137  0.185  0.449-   523 2.44   403 2.46   397 2.47   379 2.50
   333  0.818  0.682  0.790-   582 2.36   261 2.39   214 2.40    53 2.48
   334  0.019  0.134  0.785-   838 2.36   207 2.38   635 2.45   790 2.50
   335  0.396  0.086  0.518-   819 2.36   118 2.39   928 2.42   248 2.42
   336  0.962  0.771  0.444-     8 2.40   318 2.42   581 2.49    54 2.54   563 3.08
   337  0.708  0.738  0.409-   203 2.36   751 2.37   902 2.41   119 2.42
   338  0.895  0.171  0.813-   899 2.39    68 2.39   207 2.39   976 2.58
   339  0.727  0.158  0.397-   410 2.34   460 2.40   670 2.43   205 2.52
   340  0.698  0.711  0.267-   266 2.32   751 2.36   694 2.37   591 2.38
   341  0.322  0.471  0.485-   673 2.35   965 2.37   565 2.41   820 2.44
   342  0.415  0.400  0.074-   667 2.35   206 2.36   509 2.37   725 2.47
   343  0.678  0.698  0.978-   412 2.36   485 2.44   810 2.45   427 2.46
   344  0.975  0.567  0.558-   400 2.34   634 2.39   500 2.41   493 2.44
   345  0.123  0.937  0.864-   992 2.37   575 2.38   464 2.41   695 2.44
   346  0.363  0.792  0.695-   703 2.34   660 2.35    97 2.35   856 2.40
   347  0.854  0.419  0.038-   479 2.31   836 2.44   687 2.46   877 2.66
   348  0.490  0.184  0.906-   255 2.42   693 2.43   923 2.46   362 2.51
   349  0.939  0.313  0.487-    99 2.35   652 2.35   956 2.36   164 2.36
   350  0.953  0.349  0.250-    19 2.34   702 2.35    59 2.38   972 2.40
   351  0.648  0.048  0.257-   698 2.36   932 2.37   569 2.42   674 2.45
   352  0.972  0.825  0.119-   796 2.38    30 2.38   917 2.39   456 2.40
   353  0.288  0.005  0.957-   752 2.39   624 2.41   713 2.45   369 2.49
   354  0.505  0.123  0.303-   587 2.33   728 2.37   271 2.40   481 2.41
   355  0.718  0.322  0.923-   924 2.36   453 2.37   586 2.38   220 2.50
   356  0.597  0.538  0.886-   526 2.40   155 2.41   251 2.41   647 2.47
   357  0.720  0.451  0.360-   792 2.38   780 2.39   177 2.42   324 2.43
   358  0.660  0.494  0.686-   503 2.38   691 2.44   632 2.45   457 2.46
   359  0.581  0.885  0.999-     7 2.35   637 2.35   189 2.37   799 2.41
   360  0.942  0.915  0.359-   826 2.33   880 2.34   115 2.34   364 2.35
   361  0.552  0.158  0.023-   693 2.33   304 2.35   884 2.37   999 2.40
   362  0.451  0.106  0.928-   603 2.37   195 2.43   930 2.46   348 2.51
   363  0.367  0.738  0.091-   655 2.34   391 2.36   988 2.42   679 2.48
   364  0.936  0.895  0.441-   360 2.35     8 2.37   900 2.41   563 2.47
   365  0.588  0.041  0.078-    36 2.32   999 2.34    33 2.36   596 2.45
   366  0.681  0.032  0.643-   295 2.37   554 2.42   907 2.45    93 2.45
   367  0.241  0.241  0.868-   535 2.35   829 2.38   513 2.48    48 2.48
   368  0.240  0.565  0.787-   484 2.33   812 2.34   376 2.35   278 2.35
   369  0.285  0.919  0.981-   141 2.37   414 2.40   353 2.49   577 2.50
   370  0.560  0.732  0.660-   949 2.36   931 2.36     2 2.36   386 2.40
   371  0.391  0.993  0.858-   713 2.36   603 2.40   222 2.41   708 2.43
   372  0.973  0.133  0.061-   904 2.35   707 2.37   244 2.45   312 2.47
   373  0.837  0.199  0.651-   541 2.41   671 2.41    90 2.42   678 2.80    39 3.07
   374  0.522  0.461  0.132-   302 2.33   938 2.37   667 2.37   854 2.38
   375  0.613  0.562  0.113-   486 2.33   302 2.36   116 2.41   631 2.44
   376  0.227  0.523  0.715-   368 2.35   162 2.39   743 2.42   612 2.43
   377  0.941  0.745  0.236-     1 2.38    30 2.39   468 2.40   951 2.41
   378  0.321  0.296  0.729-   953 2.34    37 2.37   533 2.47   107 2.52
   379  0.147  0.264  0.490-   872 2.39   920 2.46   857 2.46   332 2.50
   380  0.987  0.463  0.340-   675 2.32    59 2.38   676 2.39   926 2.49
   381  0.906  0.730  0.703-   971 2.35   156 2.45   230 2.53   182 2.56
   382  0.461  0.802  0.338-   959 2.43   952 2.46   822 2.47   893 2.70
   383  0.473  0.868  0.769-   543 2.36   528 2.38   703 2.39   130 2.42
   384  0.868  0.383  0.356-   702 2.35   676 2.36   101 2.39   249 2.44
   385  0.609  0.416  0.772-   503 2.38    94 2.39   973 2.46   981 2.50
   386  0.516  0.747  0.588-   709 2.33   370 2.40   492 2.43   483 2.46
   387  0.209  0.712  0.222-   269 2.37   943 2.37   219 2.38   756 2.39
   388  0.983  0.716  0.024-    51 2.35    21 2.41   659 2.42   456 2.52
   389  0.150  0.644  0.717-   278 2.37   644 2.38   162 2.46   821 2.58
   390  0.032  0.381  0.628-   919 2.34    92 2.44   823 2.44   407 2.51
   391  0.401  0.807  0.056-   363 2.36   221 2.47    73 2.48   171 2.51
   392  0.050  0.640  0.844-   730 2.37   234 2.44   524 2.44   617 2.46
   393  0.140  0.984  0.258-   546 2.38   964 2.39   106 2.41   935 2.42
   394  0.926  0.764  0.572-   720 2.33   971 2.33   432 2.34    54 2.34
   395  0.267  0.020  0.518-   327 2.37   781 2.39   118 2.42   163 2.44
   396  0.166  0.973  0.109-   450 2.39   204 2.39   252 2.42   300 2.48
   397  0.202  0.128  0.471-   599 2.37   913 2.38   163 2.40   332 2.47
   398  0.202  0.551  0.264-   653 2.38   800 2.42   470 2.42    79 2.43
   399  0.223  0.001  0.754-   795 2.32   737 2.38   835 2.39    38 2.42
   400  0.986  0.644  0.589-   344 2.34   720 2.37   250 2.37   608 2.43
   401  0.323  0.664  0.393-   549 2.36    78 2.38   173 2.39    34 2.41
   402  0.290  0.045  0.371-   913 2.38   150 2.43   267 2.43   955 2.52
   403  0.058  0.148  0.465-   209 2.44   645 2.45   332 2.46    61 2.46
   404  0.203  0.123  0.145-   764 2.33   531 2.35   989 2.35    66 2.36
   405  0.272  0.303  0.461-   872 2.37   830 2.37    35 2.38   967 2.41
   406  0.040  0.271  0.314-   898 2.39   972 2.40   833 2.42   912 2.47
   407  0.077  0.308  0.599-   441 2.35   857 2.42   390 2.51   285 2.57
   408  0.901  0.103  0.388-   963 2.32   522 2.35   552 2.37   946 2.41
   409  0.694  0.964  0.371-   979 2.37   932 2.39   301 2.40   689 2.57   418 3.03
   410  0.704  0.077  0.390-   932 2.29   339 2.34   607 2.38   418 2.60
   411  0.270  0.196  0.656-    70 2.38   533 2.41   827 2.45   520 2.46
   412  0.670  0.624  0.938-   526 2.35   343 2.36   122 2.42   264 2.44
   413  0.430  0.387  0.671-   844 2.32   970 2.38    72 2.40   107 2.48
   414  0.205  0.898  0.003-   300 2.39   369 2.40   577 2.41   530 2.48
   415  0.519  0.771  0.835-   579 2.36   543 2.42   130 2.42    49 2.50
   416  0.114  0.559  0.443-   159 2.33   593 2.35   762 2.38   875 2.46
   417  0.449  0.513  0.983-   649 2.43   298 2.43   725 2.45   825 2.49
   418  0.778  0.031  0.356-   932 2.33   522 2.35   982 2.51   410 2.60   409 3.03
   419  0.828  0.004  0.469-   505 2.40   900 2.50   552 2.69   689 2.80
   420  0.383  0.954  0.468-   327 2.37   928 2.38   458 2.41   148 2.46
   421  0.240  0.380  0.792-   455 2.35   793 2.36   953 2.37   211 2.38
   422  0.025  0.448  0.144-   735 2.32   123 2.34   831 2.36   656 2.38
   423  0.279  0.354  0.135-   916 2.37   748 2.39   158 2.41   206 2.51
   424  0.708  0.831  0.313-   330 2.35   902 2.36   301 2.39   266 2.42
   425  0.752  0.315  0.393-   780 2.38   249 2.40   508 2.44   850 2.46
   426  0.810  0.873  0.044-   560 2.31   238 2.36   294 2.38   640 2.41
   427  0.623  0.754  0.937-   189 2.33    49 2.35    96 2.36   343 2.46
   428  0.461  0.669  0.404-   668 2.33   169 2.38    13 2.39   549 2.40
   429  0.123  0.913  0.528-   494 2.33   664 2.35   199 2.43   320 2.48
   430  0.210  0.470  0.141-   800 2.33   916 2.35   601 2.36   233 2.43
   431  0.267  0.470  0.972-    20 2.37   303 2.37   253 2.44   815 2.52
   432  0.872  0.819  0.539-   394 2.34     8 2.37   705 2.37   133 2.39
   433  0.823  0.815  0.409-     8 2.38   326 2.38   203 2.39   977 2.49
   434  0.127  0.120  0.876-   789 2.33   785 2.40   218 2.43   635 2.46
   435  0.037  0.830  0.577-    85 2.37    54 2.40   570 2.42   494 2.44
   436  0.767  0.937  0.251-   701 2.37   982 2.39   806 2.41   301 2.42
   437  0.297  0.901  0.345-    42 2.27   267 2.35   246 2.40   279 2.43
   438  0.578  0.862  0.320-    16 2.36   442 2.38   959 2.40   145 2.44
   439  0.474  0.910  0.038-   799 2.36     7 2.37   171 2.38   895 2.40
   440  0.752  0.467  0.606-   742 2.37   474 2.39     3 2.40   632 2.47
   441  0.159  0.329  0.606-   920 2.35   407 2.35   690 2.41   463 2.46
   442  0.618  0.916  0.267-   925 2.37   438 2.38   301 2.40   674 2.40
   443  0.624  0.566  0.321-   889 2.36   770 2.36   177 2.41   960 2.42
   444  0.370  0.181  0.030-   195 2.39    41 2.40    91 2.43   562 2.49
   445  0.554  0.540  0.437-   625 2.36   960 2.39   465 2.40   287 2.48
   446  0.398  0.330  0.456-    98 2.39   975 2.39   830 2.40   704 2.40
   447  0.168  0.816  0.130-   943 2.44   502 2.46   204 2.50   176 2.54
   448  0.181  0.253  0.220-   471 2.37   144 2.39   787 2.41   862 2.43
   449  0.895  0.686  0.902-    53 2.42   996 2.43   659 2.44   262 2.47
   450  0.234  0.982  0.160-   764 2.31   154 2.37   396 2.39   964 2.50
   451  0.338  0.003  0.639-   120 2.39   781 2.40   325 2.41   910 2.43
   452  0.995  0.964  0.151-     9 2.30   597 2.32   796 2.36   828 2.37
   453  0.710  0.337  0.006-   355 2.37   146 2.38   968 2.42   558 2.44
   454  0.079  0.826  0.016-   187 2.34   157 2.37   456 2.43   530 2.51
   455  0.224  0.393  0.711-   421 2.35   478 2.36   690 2.36   612 2.37
   456  0.027  0.780  0.070-   352 2.40   454 2.43   176 2.48   388 2.52
   457  0.627  0.432  0.633-    67 2.34   742 2.38   507 2.39   358 2.46
   458  0.402  0.876  0.501-   805 2.32   544 2.37   861 2.39   420 2.41
   459  0.165  0.554  0.020-   253 2.32   201 2.38   765 2.44   658 2.49
   460  0.798  0.158  0.446-   552 2.36   809 2.38   339 2.40   328 2.48
   461  0.721  0.201  0.558-   914 2.35   506 2.36   809 2.36   678 2.40
   462  0.719  0.470  0.075-   877 2.36   699 2.38   486 2.41   968 2.42
   463  0.174  0.408  0.571-   933 2.33   881 2.35   525 2.44   441 2.46
   464  0.187  0.993  0.880-    38 2.38   345 2.41   624 2.41   789 2.44
   465  0.478  0.546  0.477-     5 2.34    13 2.35   445 2.40   491 2.42
   466  0.839  0.829  0.911-   498 2.39   314 2.40   571 2.42   212 2.43
   467  0.616  0.333  0.432-   226 2.43   616 2.47   532 2.48   850 2.53
   468  0.889  0.727  0.170-   377 2.40   482 2.41   917 2.42   180 2.44
   469  0.786  0.097  0.822-   683 2.33   858 2.34   899 2.38   950 2.46
   470  0.277  0.594  0.270-   173 2.39    88 2.42   990 2.42   398 2.42
   471  0.194  0.249  0.136-   748 2.36   448 2.37   879 2.41    66 2.42
   472  0.923  0.418  0.904-   547 2.38    69 2.42   984 2.44   759 2.54
   473  0.829  0.059  0.187-   109 2.33   276 2.34   310 2.34   701 2.42
   474  0.816  0.432  0.561-   772 2.39   440 2.39   685 2.41   939 2.47
   475  0.994  0.804  0.822-   680 2.37   178 2.41   732 2.45   230 2.45
   476  0.411  0.765  0.927-   221 2.35   958 2.37    83 2.38   630 2.58
   477  0.569  0.081  0.731-   225 2.35   774 2.41   983 2.43   710 2.45
   478  0.287  0.412  0.658-   455 2.36   743 2.36   881 2.38   107 2.40
   479  0.808  0.438  0.972-   347 2.31   984 2.39   877 2.50
   480  0.466  0.049  0.171-   728 2.37   615 2.38   945 2.45    84 2.48
   481  0.441  0.181  0.299-   605 2.34   516 2.38   354 2.41    50 2.56
   482  0.805  0.713  0.186-    17 2.38   591 2.39   468 2.41   595 2.42
   483  0.524  0.832  0.567-   786 2.40   306 2.43   386 2.46   544 2.49
   484  0.235  0.520  0.857-   368 2.33   815 2.36   793 2.38   288 2.45
   485  0.649  0.694  0.060-   851 2.35   631 2.35   662 2.39   343 2.44
   486  0.688  0.551  0.078-   375 2.33   122 2.39   462 2.41   564 2.45
   487  0.898  0.902  0.228-   566 2.37   597 2.40   583 2.41   115 2.43
   488  0.701  0.807  0.107-   104 2.37   595 2.40   851 2.42   238 2.46
   489  0.585  0.173  0.409-   239 2.40   778 2.41   271 2.44   205 2.47
   490  0.338  0.620  0.607-   734 2.43   103 2.45    71 2.45   168 2.54
   491  0.444  0.571  0.553-   874 2.37   465 2.42   128 2.45    71 2.48
   492  0.430  0.737  0.598-   763 2.40   386 2.43   856 2.45   168 2.46
   493  0.988  0.563  0.471-   797 2.38   344 2.44   159 2.45   761 2.46
   494  0.123  0.838  0.564-   429 2.33   974 2.35   435 2.44    31 2.46
   495  0.693  0.943  0.080-   105 2.35   184 2.36   596 2.39   238 2.41
   496  0.648  0.827  0.677-   196 2.33   769 2.38   949 2.47   539 2.48
   497  0.974  0.630  0.316-     1 2.45   926 2.49   200 2.49   319 2.57
   498  0.855  0.913  0.914-   294 2.34   193 2.35   915 2.36   466 2.39
   499  0.734  0.981  0.893-   284 2.32   915 2.33    62 2.34   521 2.41
   500  0.891  0.561  0.576-   331 2.39   344 2.41   772 2.41   870 2.48
   501  0.680  0.482  0.231-   738 2.36   832 2.39   177 2.41   116 2.43
   502  0.240  0.803  0.081-   136 2.36   655 2.39   577 2.45   447 2.46
   503  0.622  0.500  0.763-   385 2.38   358 2.38   647 2.82   706 3.08
   504  0.075  0.680  0.493-   762 2.31   250 2.34   761 2.43   758 2.44
   505  0.806  0.012  0.552-   753 2.35    93 2.40   419 2.40    80 2.42
   506  0.643  0.195  0.527-    29 2.30   461 2.36   610 2.43   205 2.48
   507  0.584  0.362  0.657-   457 2.39     4 2.40    94 2.46    72 2.47
   508  0.798  0.253  0.353-   729 2.36   670 2.39   425 2.44   328 2.44
   509  0.444  0.325  0.103-   114 2.34   342 2.37   802 2.38   329 2.66   682 3.01
   510  0.495  0.997  0.488-   928 2.37   191 2.38   834 2.38   149 2.46
   511  0.110  0.560  0.148-   766 2.32   256 2.32   765 2.37   800 2.39
   512  0.090  0.581  0.587-   876 2.33   762 2.36   634 2.36
   513  0.316  0.289  0.867-   801 2.39   953 2.44   143 2.45   367 2.48
   514  0.288  0.606  0.947-   576 2.35     6 2.36   815 2.38   638 2.41
   515  0.651  0.967  0.800-    62 2.33   710 2.36   997 2.37   237 2.39
   516  0.455  0.212  0.221-   868 2.36   190 2.38   481 2.38   682 2.43
   517  0.472  0.858  0.167-   684 2.39   994 2.39   317 2.41   171 2.46
   518  0.256  0.730  0.824-    44 2.33   745 2.38   584 2.40   243 2.40
   519  0.054  0.364  0.457-   652 2.37   741 2.39    76 2.39   857 2.45
   520  0.358  0.207  0.656-   808 2.32   113 2.41    37 2.41   411 2.46
   521  0.677  0.923  0.922-   637 2.39   499 2.41   166 2.42   237 2.42
   522  0.842  0.081  0.332-   257 2.34   408 2.35   418 2.35   627 2.36
   523  0.148  0.198  0.363-   782 2.36   628 2.38   833 2.42   332 2.44
   524  0.107  0.578  0.819-   278 2.33   288 2.40   392 2.44   174 2.46
   525  0.155  0.436  0.490-   593 2.40   741 2.41   463 2.44   272 2.45
   526  0.598  0.624  0.894-   412 2.35   768 2.36   356 2.40    32 2.42
   527  0.087  0.958  0.006-   300 2.36   980 2.38   157 2.40   695 2.44
   528  0.463  0.948  0.744-   646 2.37   383 2.38   708 2.39   215 2.46
   529  0.752  0.661  0.523-   232 2.35   235 2.35   650 2.40   119 2.45
   530  0.162  0.823  0.981-   136 2.41   550 2.44   414 2.48   454 2.51
   531  0.172  0.119  0.223-   404 2.35   862 2.35   534 2.37   546 2.39
   532  0.535  0.296  0.444-   239 2.35    47 2.38    98 2.42   467 2.48
   533  0.245  0.252  0.717-   411 2.41   378 2.47   690 2.53   829 2.69   969 3.08
   534  0.243  0.117  0.271-   677 2.35   628 2.37   531 2.37   150 2.44
   535  0.178  0.295  0.883-   367 2.35   211 2.36   886 2.37    18 2.40
   536  0.515  0.124  0.606-   248 2.33   774 2.43   991 2.45   987 2.47
   537  0.119  0.127  0.019-   784 2.34   989 2.40   312 2.48   218 2.52
   538  0.883  0.256  0.121-   633 2.39   724 2.40   170 2.41   727 2.42
   539  0.686  0.770  0.620-   931 2.36   636 2.44   496 2.48   197 2.54
   540  0.735  0.832  0.523-   705 2.36   636 2.40   977 2.46   280 2.48
   541  0.857  0.128  0.696-    39 2.39   373 2.41   899 2.43   185 2.48   733 2.64
   542  0.038  0.861  0.718-   545 2.36   680 2.42    87 2.43    85 2.44
   543  0.460  0.834  0.846-   383 2.36   846 2.36   630 2.40   415 2.42   703 3.03
   544  0.483  0.851  0.490-   191 2.36   458 2.37   893 2.43   483 2.49
   545  0.089  0.928  0.719-   542 2.36   236 2.41    56 2.42   575 2.52
   546  0.113  0.056  0.221-   393 2.38   531 2.39   252 2.42   568 2.48
   547  0.888  0.419  0.826-   873 2.32   472 2.38    15 2.42   798 2.46
   548  0.287  0.674  0.724-    97 2.37   734 2.38   812 2.41
   549  0.394  0.696  0.359-   401 2.36   179 2.38   428 2.40   952 2.41
   550  0.169  0.807  0.895-   992 2.38   754 2.40   745 2.42   530 2.44
   551  0.128  0.452  0.242-   735 2.32   896 2.35   131 2.36   800 2.37
   552  0.855  0.096  0.459-   460 2.36   408 2.37    74 2.52   419 2.69
   553  0.636  0.236  0.100-   304 2.30   558 2.36   127 2.44   937 2.47
   554  0.668  0.118  0.637-    29 2.33   225 2.35   366 2.42   678 2.55
   555  0.636  0.065  0.915-   604 2.39   947 2.48    62 2.49   557 2.50
   556  0.246  0.114  0.802-    14 2.36   737 2.40   789 2.46   829 2.53
   557  0.689  0.054  0.987-   596 2.33   284 2.36   775 2.41   555 2.50
   558  0.641  0.296  0.040-   553 2.36   665 2.41   661 2.44   453 2.44
   559  0.831  0.846  0.689-   614 2.36   182 2.38   841 2.40   240 2.48
   560  0.829  0.919  0.111-   426 2.31   783 2.34   184 2.34   583 2.36
   561  0.998  0.269  0.733-   208 2.43    26 2.44   207 2.46   715 2.46
   562  0.285  0.171  0.055-    66 2.35    52 2.37   228 2.42   444 2.49
   563  0.019  0.866  0.451-   664 2.32   364 2.47    77 2.48   336 3.08
   564  0.749  0.611  0.099-   662 2.33   486 2.45    17 2.46   260 2.91   890 3.06
   565  0.276  0.425  0.429-   830 2.38   341 2.41    63 2.64   272 2.73   965 3.10
   566  0.977  0.874  0.244-    30 2.30   826 2.36     9 2.37   487 2.37
   567  0.961  0.474  0.712-   654 2.36    25 2.37   798 2.46   823 2.48
   568  0.035  0.075  0.258-   887 2.35   731 2.41   824 2.43   546 2.48
   569  0.635  0.134  0.262-   271 2.37   755 2.39   351 2.42   247 2.46
   570  0.989  0.903  0.571-   866 2.37   664 2.38   435 2.42   133 2.44
   571  0.759  0.799  0.928-   810 2.39   166 2.41   466 2.42   804 2.42
   572  0.480  0.550  0.216-   140 2.39   854 2.47   602 2.49   132 2.54   657 2.57
   573  0.615  0.740  0.494-   709 2.42   274 2.44   119 2.44   636 2.46
   574  0.922  0.011  0.623-   866 2.44   185 2.44    80 2.45    75 2.48
   575  0.089  0.976  0.796-   345 2.38   835 2.38   747 2.48   545 2.52
   576  0.318  0.680  0.918-    83 2.33   514 2.35    44 2.37   966 2.51
   577  0.267  0.884  0.062-   414 2.41   502 2.45   154 2.45   369 2.50
   578  0.473  0.269  0.643-    72 2.38   944 2.39   113 2.44   987 2.47
   579  0.526  0.695  0.797-   415 2.36   188 2.37     2 2.40    32 2.46
   580  0.576  0.310  0.796-   125 2.39   901 2.41    94 2.46   241 2.56
   581  0.987  0.783  0.359-   826 2.40   951 2.40   308 2.44   336 2.49
   582  0.769  0.680  0.860-   264 2.35   333 2.36   996 2.37   804 2.44
   583  0.847  0.861  0.171-   560 2.36   806 2.39   487 2.41   917 2.46
   584  0.231  0.771  0.752-   644 2.38   518 2.40   254 2.44   660 2.47
   585  0.863  0.596  0.405-   797 2.30   791 2.39   331 2.72   319 2.89
   586  0.748  0.245  0.905-   305 2.37   355 2.38   744 2.40   117 2.42
   587  0.492  0.054  0.348-   354 2.33   223 2.33   149 2.37   642 2.39
   588  0.941  0.215  0.405-   946 2.33   912 2.41   209 2.43   328 2.51
   589  0.493  0.356  0.551-    72 2.31    47 2.39   940 2.42   975 2.43
   590  0.620  0.172  0.828-   604 2.34    82 2.39   901 2.47   983 2.48
   591  0.782  0.727  0.268-   330 2.33   340 2.38   482 2.39    28 2.45
   592  0.673  0.608  0.443-   889 2.35   625 2.41   119 2.42   172 2.45
   593  0.182  0.515  0.470-   167 2.34   416 2.35   139 2.38   525 2.40
   594  0.402  0.536  0.109-   825 2.34   140 2.35   667 2.39   643 2.41
   595  0.752  0.739  0.122-   662 2.37   918 2.37   488 2.40   482 2.42
   596  0.647  0.996  0.031-   557 2.33   637 2.34   495 2.39   365 2.45
   597  0.917  0.970  0.179-   310 2.31   452 2.32   783 2.36   487 2.40
   598  0.001  0.178  0.630-   909 2.35   803 2.36   733 2.43   285 2.49
   599  0.266  0.164  0.513-   397 2.37   118 2.44   827 2.46    35 2.46
   600  0.325  0.154  0.908-   195 2.37    14 2.39   801 2.46    48 2.47
   601  0.271  0.515  0.104-   430 2.36   658 2.37   643 2.41    20 2.44
   602  0.424  0.578  0.280-   179 2.32   165 2.34    88 2.38   572 2.49
   603  0.440  0.064  0.855-   362 2.37   863 2.38   192 2.39   371 2.40
   604  0.632  0.150  0.908-   590 2.34   555 2.39   117 2.42   693 2.43
   605  0.492  0.239  0.331-   948 2.32   481 2.34   239 2.35   813 2.36
   606  0.124  0.438  0.956-   688 2.32   723 2.33   253 2.36    45 2.38
   607  0.643  0.056  0.445-   410 2.38   979 2.41   778 2.44   736 2.44
   608  0.987  0.620  0.673-    25 2.42   400 2.43   821 2.46   156 2.54
   609  0.996  0.970  0.910-   193 2.37   695 2.38    10 2.41   747 2.42
   610  0.583  0.245  0.567-     4 2.36    47 2.38   987 2.41   506 2.43
   611  0.927  0.943  0.772-    87 2.39   908 2.44   282 2.57   178 2.59
   612  0.170  0.458  0.705-   933 2.33   455 2.37   126 2.40   376 2.43
   613  0.704  0.328  0.591-   742 2.38     4 2.38   771 2.38   914 2.39
   614  0.910  0.858  0.661-   559 2.36   971 2.37    87 2.37   133 2.46
   615  0.384  0.024  0.179-   480 2.38   137 2.40   309 2.43   911 2.52
   616  0.628  0.353  0.346-   954 2.39   929 2.42   780 2.42   467 2.47
   617  0.071  0.704  0.902-   754 2.32   392 2.46   138 2.46   732 2.49
   618  0.491  0.938  0.371-   959 2.33   191 2.35   148 2.36   223 2.42
   619  0.323  0.753  0.267-   941 2.41   717 2.43   269 2.43   952 2.49
   620  0.070  0.718  0.260-   147 2.35     1 2.37   308 2.40   219 2.41
   621  0.391  0.713  0.802-    44 2.35   188 2.41    97 2.44   630 2.50
   622  0.249  0.821  0.614-   660 2.36   974 2.37   859 2.37   839 2.41
   623  0.429  0.351  0.269-   739 2.33   948 2.35   682 2.37   281 2.37
   624  0.204  0.026  0.959-   353 2.41   464 2.41   300 2.45   218 2.50
   625  0.609  0.575  0.491-   905 2.35   445 2.36   592 2.41   942 2.50
   626  0.547  0.423  0.259-   854 2.36   929 2.38   739 2.40   175 2.48
   627  0.821  0.147  0.283-   522 2.36   258 2.37   276 2.40   670 2.43
   628  0.217  0.151  0.344-   913 2.29   534 2.37   523 2.38   231 2.39
   629  0.577  0.603  0.731-   297 2.35   691 2.37     2 2.42   216 2.44
   630  0.385  0.793  0.842-   543 2.40   773 2.48   621 2.50   476 2.58   703 2.60
   631  0.587  0.640  0.080-   485 2.35   882 2.39   375 2.44   712 2.46
   632  0.747  0.489  0.691-   273 2.38   936 2.44   358 2.45   440 2.47
   633  0.885  0.240  0.036-    60 2.34   697 2.36   904 2.37   538 2.39
   634  0.031  0.522  0.605-   512 2.36   344 2.39    92 2.39    25 2.45
   635  0.042  0.102  0.864-   747 2.43   641 2.44   334 2.45   434 2.46
   636  0.657  0.800  0.543-   540 2.40   306 2.40   539 2.44   573 2.46
   637  0.612  0.956  0.966-   596 2.34   359 2.35   521 2.39   947 2.53
   638  0.209  0.640  0.937-   514 2.41   843 2.48   243 2.52   201 2.56   138 3.13
   639  0.330  0.319  0.007-   143 2.36   867 2.39    41 2.48   206 2.50
   640  0.851  0.797  0.046-   917 2.40   918 2.41   426 2.41   212 2.42
   641  0.996  0.131  0.932-   312 2.40   100 2.41    89 2.42   635 2.44
   642  0.410  0.035  0.333-   955 2.37   587 2.39   148 2.41   309 2.48
   643  0.331  0.549  0.156-   788 2.38   594 2.41   601 2.41   990 2.49
   644  0.164  0.728  0.723-   161 2.33   584 2.38   389 2.38   293 2.42
   645  0.041  0.094  0.399-   847 2.36   963 2.39   824 2.39   403 2.45
   646  0.527  0.982  0.789-   528 2.37   710 2.37   863 2.39   102 2.42
   647  0.673  0.508  0.850-   356 2.47   973 2.48   706 2.56   957 2.56   503 2.82
   648  0.759  0.542  0.978-   957 2.36   757 2.42   122 2.44   877 2.44
   649  0.450  0.546  0.902-    24 2.38   322 2.40   417 2.43   155 2.54
   650  0.778  0.661  0.605-   311 2.37   197 2.37   529 2.40   870 2.46
   651  0.723  0.237  0.691-   777 2.35   678 2.35   771 2.37   277 2.38
   652  0.977  0.352  0.422-   349 2.35   519 2.37   676 2.40   912 2.41
   653  0.194  0.501  0.333-   398 2.38    58 2.40   896 2.42   139 2.45
   654  0.908  0.435  0.659-    46 2.36   567 2.36   772 2.38   919 2.45
   655  0.293  0.755  0.128-   363 2.34   941 2.37   502 2.39   756 2.39
   656  0.074  0.459  0.075-   765 2.36   422 2.38   233 2.44   151 2.45
   657  0.428  0.474  0.211-   788 2.31   667 2.32   739 2.35   572 2.57
   658  0.239  0.582  0.062-    86 2.37   601 2.37   459 2.49     6 2.55
   659  0.948  0.739  0.948-   212 2.38   732 2.39   388 2.42   449 2.44
   660  0.281  0.813  0.692-   346 2.35   622 2.36   181 2.44   584 2.47
   661  0.591  0.273  0.972-   924 2.37   906 2.37   558 2.44   693 2.46
   662  0.699  0.673  0.126-   564 2.33   595 2.37   485 2.39   694 2.58    17 3.12
   663  0.028  0.582  0.025-    51 2.35   891 2.38   217 2.40   765 2.41
   664  0.042  0.923  0.507-   563 2.32   429 2.35   718 2.36   570 2.38
   665  0.630  0.363  0.094-   938 2.38   968 2.40   558 2.41  1000 2.52
   666  0.544  0.524  0.637-    67 2.32   874 2.35   691 2.36   111 2.41
   667  0.436  0.460  0.129-   657 2.32   342 2.35   374 2.37   594 2.39
   668  0.471  0.717  0.472-   428 2.33   893 2.41   763 2.46   709 2.50
   669  0.765  0.319  0.797-   305 2.34   864 2.38   220 2.42   700 2.64
   670  0.753  0.188  0.320-   508 2.39   627 2.43   339 2.43   247 2.47
   671  0.867  0.266  0.697-   883 2.36   373 2.41   208 2.42   700 2.53
   672  0.304  0.430  0.245-   788 2.31   916 2.36   281 2.38    63 2.55
   673  0.280  0.498  0.553-   341 2.35   167 2.40   103 2.40   881 2.50
   674  0.580  0.993  0.264-   223 2.37   442 2.40   351 2.45    84 2.48
   675  0.063  0.460  0.374-   380 2.32   896 2.35    76 2.42   159 2.42
   676  0.934  0.421  0.394-   384 2.36    12 2.37   380 2.39   652 2.40
   677  0.303  0.174  0.256-   860 2.31   534 2.35   787 2.38    50 2.43
   678  0.741  0.174  0.638-   651 2.35   461 2.40    39 2.45   554 2.55   373 2.80
   679  0.378  0.673  0.031-   265 2.40    83 2.43   363 2.48     6 2.56
   680  0.070  0.825  0.790-   293 2.37   475 2.37   542 2.42   992 2.49
   681  0.120  0.093  0.710-   835 2.39    23 2.40   315 2.41   838 2.44
   682  0.453  0.298  0.207-   623 2.37   802 2.38   516 2.43   329 2.49   509 3.01
   683  0.716  0.073  0.783-   469 2.33    82 2.34    62 2.38   295 2.49
   684  0.553  0.857  0.138-   799 2.35   517 2.39   183 2.39   925 2.55
   685  0.841  0.351  0.578-    99 2.35   883 2.36   286 2.37   474 2.41
   686  0.084  0.316  0.113-   307 2.39   323 2.40   152 2.41   879 2.45
   687  0.808  0.369  0.095-   727 2.38   146 2.44   699 2.45   347 2.46
   688  0.146  0.446  0.876-   606 2.32   313 2.36   793 2.38   288 2.43
   689  0.747  0.949  0.445-   977 2.45   897 2.52   409 2.57   419 2.80
   690  0.192  0.319  0.685-   969 2.31   455 2.36   441 2.41   533 2.53
   691  0.613  0.565  0.663-   666 2.36   629 2.37   993 2.42   358 2.44
   692  0.761  0.374  0.266-   186 2.41   832 2.41   780 2.42   101 2.43
   693  0.567  0.192  0.947-   361 2.33   348 2.43   604 2.43   661 2.46
   694  0.681  0.648  0.213-   340 2.37   770 2.39   129 2.44   662 2.58
   695  0.065  0.923  0.928-   609 2.38   345 2.44   527 2.44   187 2.46
   696  0.766  0.225  0.057-   871 2.42   127 2.46   146 2.49    60 2.54
   697  0.855  0.297  0.981-   633 2.36   744 2.43   146 2.48   759 2.50
   698  0.687  0.022  0.186-   701 2.32   722 2.36   351 2.36   105 2.40
   699  0.757  0.426  0.138-   832 2.37   462 2.38   995 2.40   687 2.45
   700  0.854  0.292  0.783-   873 2.38   671 2.53    68 2.54   669 2.64
   701  0.766  0.999  0.194-   698 2.32   436 2.37   184 2.37   473 2.42
   702  0.909  0.320  0.315-   729 2.34   350 2.35   384 2.35   912 2.42
   703  0.394  0.835  0.760-   346 2.34   268 2.37   383 2.39   630 2.60   543 3.03
   704  0.378  0.249  0.435-   998 2.36   776 2.39   446 2.40    35 2.41
   705  0.798  0.778  0.541-   540 2.36   432 2.37   197 2.37   232 2.42
   706  0.700  0.573  0.792-   297 2.38   264 2.46   647 2.56   936 2.63   503 3.08
   707  0.009  0.110  0.134-   372 2.37   731 2.38   828 2.39   283 2.66
   708  0.386  0.971  0.774-   268 2.34   528 2.39   325 2.41   371 2.43
   709  0.543  0.701  0.523-   386 2.33   942 2.41   573 2.42   668 2.50
   710  0.597  0.998  0.742-   515 2.36   646 2.37   907 2.42   477 2.45
   711  0.842  0.158  0.944-   744 2.41   950 2.43    60 2.45    89 2.48
   712  0.527  0.631  0.016-   265 2.40   298 2.41   768 2.41   631 2.46
   713  0.311  0.017  0.873-   371 2.36    38 2.39    14 2.42   353 2.45
   714  0.196  0.636  0.531-   927 2.36   167 2.41   762 2.42   124 2.49
   715  0.079  0.237  0.717-   285 2.38   838 2.38   969 2.41   561 2.46
   716  0.588  0.729  0.354-   751 2.35   274 2.37   169 2.41    16 2.42
   717  0.362  0.686  0.225-   179 2.34   988 2.36   990 2.41   619 2.43
   718  0.050  0.003  0.478-   664 2.36   142 2.42   847 2.43   878 2.44
   719  0.413  0.386  0.925-   921 2.40   210 2.41   143 2.44   725 2.49
   720  0.912  0.682  0.570-   110 2.33   394 2.33   870 2.34   400 2.37
   721  0.073  0.726  0.642-   161 2.36    85 2.39   250 2.41   821 2.44
   722  0.696  0.090  0.136-    33 2.29   698 2.36   934 2.37   775 2.40
   723  0.132  0.360  0.986-   606 2.33   807 2.35    18 2.36   307 2.39
   724  0.877  0.176  0.151-   986 2.36   538 2.40   276 2.42   244 2.45
   725  0.449  0.426  0.996-   417 2.45   818 2.46   342 2.47   719 2.49
   726  0.368  0.478  0.736-   743 2.38   842 2.42   970 2.42   291 2.57
   727  0.845  0.324  0.158-   687 2.38    19 2.38   538 2.42   186 2.47
   728  0.513  0.098  0.222-   755 2.30   480 2.37   354 2.37   190 3.05
   729  0.848  0.269  0.287-   702 2.34   508 2.36   258 2.43   186 2.48
   730  0.998  0.581  0.877-   392 2.37   262 2.40   296 2.42   891 2.45
   731  0.968  0.098  0.208-   986 2.35   707 2.38   310 2.40   568 2.41
   732  0.012  0.772  0.901-   659 2.39   475 2.45   187 2.46   617 2.49
   733  0.949  0.151  0.695-   207 2.36   598 2.43   790 2.49   541 2.64
   734  0.264  0.646  0.646-   548 2.38   124 2.39   162 2.39   490 2.43
   735  0.058  0.417  0.214-   422 2.32   551 2.32    59 2.37   323 2.37
   736  0.694  0.077  0.513-    29 2.33    93 2.35   809 2.43   607 2.44
   737  0.274  0.067  0.736-    70 2.36   399 2.38   556 2.40   325 2.47
   738  0.757  0.518  0.239-   129 2.36   501 2.36   792 2.44   995 2.45
   739  0.462  0.428  0.273-   623 2.33   657 2.35   626 2.40   245 2.43
   740  0.499  0.678  0.277-   822 2.34   179 2.35   169 2.36   132 2.37
   741  0.069  0.439  0.496-   159 2.37    92 2.37   519 2.39   525 2.41
   742  0.692  0.412  0.581-   440 2.37   613 2.38   457 2.38   852 2.44
   743  0.301  0.491  0.683-   478 2.36   726 2.38   103 2.40   376 2.42
   744  0.833  0.240  0.918-    68 2.38   586 2.40   711 2.41   697 2.43
   745  0.254  0.788  0.887-   773 2.34   966 2.37   518 2.38   550 2.42
   746  0.123  0.771  0.386-   308 2.40   758 2.41    77 2.46   270 2.49
   747  0.027  0.018  0.844-   282 2.32   609 2.42   635 2.43   575 2.48
   748  0.219  0.315  0.088-   471 2.36   307 2.37   423 2.39   867 2.39
   749  0.203  0.621  0.391-   927 2.37   173 2.39   875 2.41   139 2.46
   750  0.383  0.925  0.244-    42 2.30   994 2.44   837 2.50   309 2.51
   751  0.667  0.701  0.345-   889 2.30   716 2.35   340 2.36   337 2.37
   752  0.339  0.053  0.006-    52 2.32    40 2.36   353 2.39   195 2.40
   753  0.812  0.094  0.572-   505 2.35    74 2.40   809 2.43    39 2.44
   754  0.136  0.735  0.860-   617 2.32   243 2.34   550 2.40   293 2.41
   755  0.583  0.131  0.193-   728 2.30    33 2.38   569 2.39   190 2.41
   756  0.255  0.683  0.156-   387 2.39   655 2.39    86 2.41   990 2.43
   757  0.819  0.605  0.981-   996 2.40   648 2.42   260 2.42   845 2.43
   758  0.140  0.729  0.459-   927 2.40   746 2.41    31 2.42   504 2.44
   759  0.928  0.341  0.951-   817 2.47   275 2.47   697 2.50   472 2.54
   760  0.316  0.331  0.335-    81 2.34   281 2.41   830 2.45   776 2.45    63 2.60
   761  0.010  0.645  0.446-   200 2.35   318 2.40   504 2.43   493 2.46
   762  0.115  0.610  0.512-   504 2.31   512 2.36   416 2.38   714 2.42
   763  0.398  0.711  0.522-   492 2.40    71 2.45   668 2.46   922 2.49
   764  0.255  0.058  0.136-   450 2.31   404 2.33    52 2.35   137 2.35
   765  0.092  0.541  0.067-   656 2.36   511 2.37   663 2.41   459 2.44
   766  0.134  0.640  0.148-   511 2.32    57 2.32    86 2.44   219 2.47
   767  0.694  0.673  0.706-   931 2.38   297 2.41   261 2.54   311 2.56
   768  0.531  0.657  0.934-   526 2.36   322 2.38    49 2.39   712 2.41
   769  0.684  0.842  0.752-    65 2.36   496 2.38   134 2.38   997 2.41
   770  0.617  0.599  0.243-   116 2.34   132 2.34   443 2.36   694 2.39
   771  0.747  0.314  0.664-   883 2.34   651 2.37   864 2.37   613 2.38
   772  0.884  0.475  0.588-   978 2.34   654 2.38   474 2.39   500 2.41
   773  0.314  0.842  0.865-   745 2.34   141 2.39   816 2.40   630 2.48
   774  0.506  0.068  0.672-   477 2.41   536 2.43   316 2.50   855 2.68
   775  0.725  0.094  0.055-   194 2.36   871 2.36   722 2.40   557 2.41
   776  0.372  0.266  0.351-   948 2.36   704 2.39   760 2.45    50 2.62   231 3.14
   777  0.745  0.199  0.763-   305 2.34   651 2.35    82 2.40   899 2.46
   778  0.569  0.102  0.456-   489 2.41   149 2.42   607 2.44   991 2.47
   779  0.481  0.429  0.409-     5 2.32    98 2.36   245 2.36   287 2.38
   780  0.714  0.368  0.339-   425 2.38   357 2.39   616 2.42   692 2.42
   781  0.269  0.978  0.593-    64 2.39   395 2.39   451 2.40   839 2.48
   782  0.176  0.278  0.358-   872 2.34   523 2.36    81 2.37   898 2.39
   783  0.890  0.975  0.098-   560 2.34   597 2.36   109 2.37   894 2.62
   784  0.138  0.209  0.022-   537 2.34   160 2.41   879 2.43   228 2.53
   785  0.137  0.189  0.824-   434 2.40   838 2.40   886 2.45   829 2.48
   786  0.492  0.854  0.644-   483 2.40   215 2.45   856 2.47   949 2.59
   787  0.264  0.249  0.245-   677 2.38    81 2.38   448 2.41   158 2.52
   788  0.348  0.496  0.221-    88 2.31   657 2.31   672 2.31   643 2.38
   789  0.178  0.068  0.835-   835 2.33   434 2.33   464 2.44   556 2.46
   790  0.985  0.075  0.727-   282 2.43   315 2.43   733 2.49   334 2.50   185 2.61
   791  0.794  0.556  0.374-   962 2.36   585 2.39   792 2.41   172 2.43
   792  0.783  0.491  0.318-   101 2.35   357 2.38   791 2.41   738 2.44
   793  0.228  0.435  0.856-   421 2.36   484 2.38   688 2.38   303 2.39
   794  0.872  0.447  0.223-   995 2.39   101 2.40    19 2.40   865 2.41
   795  0.220  0.946  0.691-   399 2.32    56 2.33    64 2.41   181 2.42
   796  0.990  0.903  0.092-   452 2.36   352 2.38   157 2.38   894 2.47
   797  0.909  0.542  0.446-   585 2.30    12 2.34   493 2.38   331 2.48
   798  0.925  0.491  0.791-   296 2.37   848 2.45   567 2.46   547 2.46
   799  0.550  0.913  0.075-   684 2.35    36 2.36   439 2.36   359 2.41
   800  0.164  0.514  0.195-   430 2.33   551 2.37   511 2.39   398 2.42
   801  0.369  0.222  0.872-   255 2.37   108 2.39   513 2.39   600 2.46
   802  0.389  0.282  0.153-   868 2.36   682 2.38   509 2.38   158 2.41
   803  0.953  0.237  0.592-   598 2.36   164 2.41   208 2.43    90 2.43
   804  0.730  0.758  0.857-    65 2.38    96 2.39   571 2.42   582 2.44
   805  0.339  0.831  0.470-   458 2.32   321 2.36   279 2.41   922 2.41
   806  0.774  0.858  0.215-   330 2.35   583 2.39   436 2.41   104 2.49
   807  0.064  0.317  0.961-   160 2.34   723 2.35   275 2.36   299 2.38
   808  0.388  0.130  0.642-   520 2.32   120 2.36   248 2.39   855 2.40
   809  0.758  0.136  0.518-   461 2.36   460 2.38   736 2.43   753 2.43
   810  0.761  0.728  0.976-   918 2.36   571 2.39   996 2.42   343 2.45
   811  0.003  0.224  0.182-   170 2.37   986 2.39   972 2.40   283 2.55
   812  0.310  0.611  0.778-   368 2.34   548 2.41    44 2.42   842 2.47
   813  0.562  0.234  0.285-   954 2.35   605 2.36   271 2.38   190 2.41
   814  0.603  0.427  0.979-   818 2.45   251 2.45   853 2.46   968 2.50
   815  0.299  0.529  0.912-   484 2.36   514 2.38   431 2.52    24 2.58
   816  0.274  0.891  0.806-    38 2.39   268 2.39   773 2.40   254 2.46
   817  0.960  0.274  0.904-   299 2.42   759 2.47   100 2.49    68 2.54
   818  0.530  0.395  0.015-   906 2.36   938 2.43   814 2.45   725 2.46
   819  0.420  0.112  0.441-   335 2.36   998 2.42   149 2.43   955 2.51
   820  0.396  0.448  0.526-     5 2.35   975 2.36   128 2.42   341 2.44
   821  0.060  0.661  0.699-   234 2.40   721 2.44   608 2.46   389 2.58
   822  0.502  0.762  0.271-   740 2.34    16 2.39   317 2.40   382 2.47
   823  0.026  0.412  0.709-    26 2.44   126 2.44   390 2.44   567 2.48
   824  0.026  0.132  0.323-   645 2.39   833 2.39   568 2.43   946 2.48
   825  0.374  0.531  0.029-   594 2.34    20 2.45     6 2.47   417 2.49
   826  0.997  0.861  0.325-   360 2.33   888 2.34   566 2.36   581 2.40
   827  0.223  0.199  0.581-   920 2.36   411 2.45   599 2.46   292 2.53
   828  0.032  0.030  0.112-   252 2.34   452 2.37   980 2.39   707 2.39
   829  0.221  0.201  0.795-   367 2.38   785 2.48   556 2.53   533 2.69
   830  0.324  0.355  0.419-   405 2.37   565 2.38   446 2.40   760 2.45    63 3.07
   831  0.963  0.394  0.123-   422 2.36   836 2.36   152 2.37    19 2.40
   832  0.709  0.406  0.205-   699 2.37  1000 2.38   501 2.39   692 2.41
   833  0.082  0.196  0.307-   824 2.39   523 2.42   406 2.42   862 2.47
   834  0.557  0.002  0.547-   510 2.38   991 2.40   316 2.42   903 2.53
   835  0.145  0.033  0.767-   789 2.33   575 2.38   399 2.39   681 2.39
   836  0.936  0.443  0.059-   227 2.35   831 2.36   347 2.44   151 2.44
   837  0.312  0.885  0.208-   941 2.39   246 2.44   154 2.44   750 2.50
   838  0.093  0.162  0.755-   334 2.36   715 2.38   785 2.40   681 2.44
   839  0.291  0.892  0.588-   622 2.41   861 2.43   321 2.46   781 2.48   181 2.66
   840  0.776  0.962  0.713-   295 2.39   240 2.41   997 2.49   908 2.54   290 2.62
   841  0.815  0.841  0.774-   290 2.33    65 2.36   314 2.37   559 2.40
   842  0.375  0.550  0.784-   892 2.41   726 2.42    24 2.46   812 2.47
   843  0.185  0.686  0.009-   136 2.37   138 2.43   638 2.48    86 2.61
   844  0.451  0.364  0.748-   413 2.32   944 2.43   291 2.45   981 2.46
   845  0.892  0.561  0.960-   262 2.41   984 2.43   757 2.43   217 2.48
   846  0.482  0.896  0.900-     7 2.32   543 2.36   222 2.37   102 2.40
   847  0.086  0.022  0.400-    43 2.33   645 2.36   718 2.43   935 2.47
   848  0.875  0.559  0.817-    95 2.39   214 2.42   798 2.45   262 2.54
   849  0.213  0.842  0.464-   320 2.35    31 2.36   321 2.36    55 2.41
   850  0.691  0.285  0.450-   205 2.45   425 2.46   467 2.53   914 2.54
   851  0.631  0.776  0.065-   485 2.35   183 2.38   189 2.38   488 2.42
   852  0.672  0.446  0.503-   905 2.39   226 2.42   742 2.44   324 2.44
   853  0.607  0.385  0.902-   924 2.39   973 2.42   241 2.42   814 2.46
   854  0.546  0.491  0.208-   116 2.36   626 2.36   374 2.38   572 2.47
   855  0.418  0.084  0.709-   325 2.40   808 2.40   192 2.57   774 2.68
   856  0.413  0.817  0.630-   346 2.40   492 2.45   861 2.47   786 2.47
   857  0.068  0.298  0.513-   407 2.42   519 2.45   164 2.45   379 2.46
   858  0.840  0.033  0.822-   469 2.34   915 2.39   976 2.40   908 2.42
   859  0.249  0.760  0.555-   124 2.36   622 2.37    31 2.45   922 2.50
   860  0.327  0.164  0.177-   677 2.31   868 2.34   137 2.34    66 2.43
   861  0.378  0.883  0.583-   458 2.39   910 2.42   839 2.43   856 2.47
   862  0.124  0.188  0.230-   531 2.35   448 2.43   833 2.47   283 2.52
   863  0.523  0.051  0.839-   603 2.38   646 2.39   983 2.39   947 2.63
   864  0.722  0.357  0.733-   771 2.37   669 2.38   273 2.45    94 2.68
   865  0.945  0.492  0.234-   123 2.36    59 2.40   794 2.41   926 2.49
   866  0.988  0.955  0.638-   236 2.36   570 2.37    87 2.38   574 2.44
   867  0.249  0.291  0.011-   228 2.36   639 2.39   748 2.39    18 2.42
   868  0.401  0.199  0.157-    91 2.34   860 2.34   802 2.36   516 2.36
   869  0.827  0.013  0.995-   194 2.32   284 2.37   294 2.38   263 2.38
   870  0.861  0.634  0.617-   720 2.34   156 2.42   650 2.46   500 2.48
   871  0.709  0.170  0.021-   775 2.36   117 2.41   696 2.42   304 2.46
   872  0.192  0.311  0.433-   782 2.34   405 2.37   272 2.37   379 2.39
   873  0.902  0.361  0.768-   547 2.32   700 2.38    46 2.41    26 2.45
   874  0.504  0.593  0.608-   666 2.35   491 2.37   985 2.51   942 2.55
   875  0.121  0.607  0.369-   749 2.41    79 2.41   416 2.46   200 2.47
   876  0.165  0.550  0.606-   933 2.29   512 2.33   167 2.35   162 2.35
   877  0.794  0.493  0.041-   462 2.36   648 2.44   259 2.48   479 2.50   347 2.66
   878  0.110  0.037  0.531-   199 2.34    61 2.36   163 2.37   718 2.44
   879  0.116  0.235  0.103-   471 2.41   784 2.43   686 2.45   283 2.46
   880  0.957  0.996  0.342-   360 2.34   887 2.36   257 2.39   963 2.41
   881  0.258  0.414  0.577-   463 2.35   478 2.38   673 2.50   967 2.58
   882  0.553  0.662  0.156-   153 2.25   132 2.35   631 2.39    27 2.43
   883  0.829  0.331  0.659-   771 2.34    46 2.35   671 2.36   685 2.36
   884  0.503  0.207  0.073-   114 2.36   361 2.37    91 2.42   937 2.45
   885  0.184  0.951  0.382-    43 2.32   267 2.39   320 2.39   935 3.02
   886  0.105  0.250  0.879-   535 2.37   160 2.39   299 2.42   785 2.45
   887  0.021  0.996  0.286-   568 2.35   880 2.36   935 2.38     9 2.39
   888  0.077  0.886  0.331-   826 2.34    77 2.36   935 2.40    22 2.40
   889  0.677  0.620  0.359-   751 2.30   592 2.35   443 2.36   962 2.45
   890  0.855  0.609  0.128-    17 2.30   259 2.37   180 2.40   260 2.42   564 3.06
   891  0.048  0.557  0.946-   663 2.38    45 2.42   730 2.45   201 2.54
   892  0.446  0.593  0.761-   216 2.37   842 2.41   188 2.42   985 2.51
   893  0.492  0.789  0.429-   274 2.40   668 2.41   544 2.43   382 2.70
   894  0.934  0.931  0.028-    10 2.36    11 2.47   796 2.47   294 2.50   783 2.62
   895  0.445  0.977  0.991-    40 2.38   439 2.40   930 2.43   222 2.45
   896  0.109  0.494  0.313-   675 2.35   551 2.35   653 2.42   112 2.49    79 3.10
   897  0.701  0.949  0.523-    93 2.31   903 2.39   280 2.41   689 2.52
   898  0.109  0.322  0.327-   782 2.39   406 2.39   144 2.40    76 2.43
   899  0.821  0.155  0.771-   469 2.38   338 2.39   541 2.43   777 2.46
   900  0.907  0.964  0.484-   142 2.40   364 2.41   419 2.50
   901  0.635  0.259  0.834-   924 2.41   580 2.41   305 2.45   590 2.47
   902  0.693  0.823  0.396-   424 2.36   145 2.39   977 2.41   337 2.41
   903  0.616  0.938  0.522-   198 2.30   306 2.38   897 2.39   834 2.53
   904  0.966  0.213  0.036-   372 2.35   633 2.37   170 2.40   100 2.41
   905  0.646  0.518  0.541-   625 2.35   852 2.39    67 2.43     3 2.51
   906  0.518  0.317  0.983-   818 2.36   114 2.37   210 2.37   661 2.37
   907  0.616  0.976  0.660-   316 2.42   710 2.42   366 2.45   196 2.53
   908  0.856  0.989  0.749-   858 2.42   611 2.44   185 2.50   840 2.54   290 3.02
   909  0.020  0.103  0.598-   598 2.35    61 2.38    75 2.44   315 2.46
   910  0.407  0.962  0.605-   861 2.42   451 2.43   215 2.47   928 2.48
   911  0.374  0.960  0.116-   154 2.42    40 2.47   615 2.52   171 2.56
   912  0.970  0.286  0.366-   652 2.41   588 2.41   702 2.42   406 2.47
   913  0.221  0.089  0.398-   628 2.29    43 2.35   397 2.38   402 2.38   163 3.11
   914  0.737  0.278  0.529-   461 2.35   613 2.39   286 2.40   850 2.54
   915  0.810  0.963  0.862-   499 2.33   290 2.33   498 2.36   858 2.39
   916  0.244  0.410  0.189-   430 2.35   672 2.36   423 2.37   131 2.38
   917  0.890  0.800  0.123-   352 2.39   640 2.40   468 2.42   583 2.46
   918  0.799  0.728  0.052-   810 2.36   595 2.37   640 2.41   260 2.41
   919  0.950  0.362  0.631-    99 2.33   390 2.34   208 2.38   654 2.45
   920  0.204  0.278  0.556-   441 2.35   827 2.36   379 2.46   967 2.48
   921  0.412  0.438  0.856-   291 2.37   719 2.40   229 2.41    24 2.43
   922  0.322  0.753  0.503-    78 2.36   805 2.41   763 2.49   859 2.50
   923  0.491  0.189  0.818-   983 2.41   125 2.41   108 2.42   348 2.46
   924  0.636  0.305  0.907-   355 2.36   661 2.37   853 2.39   901 2.41
   925  0.624  0.884  0.188-   105 2.33   104 2.36   442 2.37   684 2.55
   926  0.979  0.542  0.300-   112 2.43   865 2.49   380 2.49   497 2.49
   927  0.207  0.675  0.457-   714 2.36    78 2.36   749 2.37   758 2.40
   928  0.419  0.003  0.527-   510 2.37   420 2.38   335 2.42   910 2.48
   929  0.593  0.431  0.331-   177 2.33   626 2.38   287 2.39   616 2.42
   930  0.498  0.041  0.965-   999 2.34   947 2.42   895 2.43   362 2.46
   931  0.640  0.705  0.649-   539 2.36   370 2.36   993 2.36   767 2.38
   932  0.702  0.033  0.320-   410 2.29   418 2.33   351 2.37   409 2.39
   933  0.155  0.470  0.624-   876 2.29   612 2.33   463 2.33
   934  0.732  0.156  0.177-   276 2.35   127 2.36   722 2.37   247 2.40
   935  0.092  0.971  0.328-   887 2.38   888 2.40   393 2.42   847 2.47   885 3.02
   936  0.761  0.570  0.720-   632 2.44   311 2.56   214 2.63   706 2.63
   937  0.555  0.244  0.134-   190 2.38   329 2.41   884 2.45   553 2.47
   938  0.548  0.387  0.100-   374 2.37   665 2.38   818 2.43   329 2.49
   939  0.814  0.432  0.472-   249 2.45   474 2.47    12 2.50   324 2.51
   940  0.536  0.425  0.523-   589 2.42   226 2.43     5 2.43    67 2.43
   941  0.297  0.801  0.200-   655 2.37   837 2.39   619 2.41   943 2.43
   942  0.570  0.626  0.555-   709 2.41   993 2.46   625 2.50   874 2.55
   943  0.210  0.795  0.204-   135 2.34   387 2.37   941 2.43   447 2.44
   944  0.458  0.280  0.726-    37 2.38   125 2.39   578 2.39   844 2.43
   945  0.455  0.075  0.088-   999 2.41    91 2.45   480 2.45    40 2.49
   946  0.945  0.162  0.341-   588 2.33   408 2.41   258 2.41   824 2.48
   947  0.563  0.014  0.915-   930 2.42   555 2.48   102 2.51   637 2.53   863 2.63
   948  0.445  0.308  0.340-   605 2.32   623 2.35   776 2.36    98 2.37
   949  0.561  0.812  0.689-   370 2.36   130 2.37   496 2.47   786 2.59
   950  0.775  0.116  0.908-   284 2.42   711 2.43   117 2.44   469 2.46
   951  0.915  0.758  0.318-   581 2.40   377 2.41   319 2.48   326 2.48
   952  0.376  0.778  0.334-   549 2.41   279 2.45   382 2.46   619 2.49
   953  0.316  0.343  0.798-   378 2.34   421 2.37   513 2.44   291 2.46
   954  0.615  0.300  0.280-   813 2.35   175 2.37   616 2.39
   955  0.365  0.096  0.372-   642 2.37   819 2.51   402 2.52    50 2.59
   956  0.860  0.293  0.463-   286 2.32   349 2.36   328 2.37   249 2.38
   957  0.750  0.534  0.894-    95 2.33   264 2.34   648 2.36   647 2.56
   958  0.487  0.782  0.961-    49 2.32     7 2.33    73 2.34   476 2.37
   959  0.493  0.879  0.312-   618 2.33   438 2.40   382 2.43   994 2.53
   960  0.549  0.580  0.361-   445 2.39   169 2.42   443 2.42   165 2.45
   961  0.354  0.489  0.353-    88 2.38   965 2.42    63 2.45   245 2.47
   962  0.759  0.618  0.329-   791 2.36    28 2.43   889 2.45   129 2.45
   963  0.966  0.053  0.406-   408 2.32   645 2.39   142 2.41   880 2.41
   964  0.225  0.979  0.249-   393 2.39   246 2.41   150 2.44   450 2.50
   965  0.318  0.528  0.421-   341 2.37    34 2.39   961 2.42   139 2.49   565 3.10
   966  0.288  0.755  0.957-   745 2.37   136 2.40   221 2.49   576 2.51
   967  0.275  0.330  0.543-   405 2.41   224 2.44   920 2.48   881 2.58
   968  0.671  0.410  0.034-   665 2.40   462 2.42   453 2.42   814 2.50
   969  0.144  0.287  0.745-   690 2.31   211 2.39   715 2.41   533 3.08
   970  0.429  0.472  0.674-   413 2.38   111 2.41   726 2.42   128 2.46
   971  0.947  0.782  0.652-   394 2.33   381 2.35    85 2.36   614 2.37
   972  0.015  0.291  0.234-   323 2.37   350 2.40   811 2.40   406 2.40
   973  0.661  0.420  0.843-   853 2.42   385 2.46   647 2.48   220 2.52
   974  0.167  0.831  0.636-   494 2.35   622 2.37   161 2.40    56 2.48
   975  0.407  0.364  0.534-   820 2.36   224 2.38   446 2.39   589 2.43
   976  0.908  0.083  0.840-   858 2.40    89 2.45   282 2.49   338 2.58
   977  0.755  0.862  0.442-   902 2.41   689 2.45   540 2.46   433 2.49
   978  0.941  0.442  0.535-    99 2.34   772 2.34    12 2.43    92 2.48
   979  0.617  0.986  0.401-   198 2.31   409 2.37   607 2.41   223 2.46
   980  0.034  0.021  0.027-    10 2.33   312 2.35   527 2.38   828 2.39
   981  0.521  0.418  0.757-   229 2.36   111 2.43   844 2.46   385 2.50
   982  0.820  0.964  0.313-   115 2.34   436 2.39   257 2.42   418 2.51
   983  0.548  0.125  0.803-   863 2.39   923 2.41   477 2.43   590 2.48
   984  0.869  0.482  0.931-   479 2.39   845 2.43    95 2.44   472 2.44
   985  0.465  0.630  0.681-   168 2.35     2 2.36   892 2.51   874 2.51
   986  0.937  0.176  0.210-   731 2.35   724 2.36   258 2.39   811 2.39
   987  0.535  0.207  0.628-   202 2.38   610 2.41   578 2.47   536 2.47
   988  0.410  0.717  0.163-   717 2.36    27 2.39   363 2.42   317 2.42
[...]
  562        0.759   0.880   0.000   1.639
  563        0.798   0.795   0.000   1.593
  564        0.806   0.814   0.000   1.620
  565        0.829   0.769   0.000   1.598
  566        0.762   0.930   0.000   1.692
  567        0.759   0.876   0.000   1.635
  568        0.757   0.881   0.000   1.637
  569        0.764   0.866   0.000   1.629
  570        0.760   0.881   0.000   1.641
  571        0.752   0.887   0.000   1.639
  572        0.746   0.860   0.000   1.606
  573        0.758   0.853   0.000   1.611
  574        0.763   0.844   0.000   1.607
  575        0.760   0.861   0.000   1.621
  576        0.763   0.892   0.000   1.655
  577        0.763   0.839   0.000   1.602
  578        0.763   0.878   0.000   1.641
  579        0.761   0.885   0.000   1.646
  580        0.771   0.838   0.000   1.608
  581        0.761   0.860   0.000   1.622
  582        0.758   0.910   0.000   1.668
  583        0.761   0.881   0.000   1.642
  584        0.759   0.857   0.000   1.616
  585        0.852   0.751   0.000   1.603
  586        0.757   0.892   0.000   1.650
  587        0.761   0.917   0.000   1.678
  588        0.764   0.858   0.000   1.622
  589        0.759   0.899   0.000   1.658
  590        0.759   0.877   0.000   1.636
  591        0.758   0.905   0.000   1.663
  592        0.759   0.886   0.000   1.645
  593        0.760   0.911   0.000   1.671
  594        0.761   0.912   0.000   1.672
  595        0.761   0.893   0.000   1.653
  596        0.761   0.907   0.000   1.668
  597        0.764   0.934   0.000   1.697
  598        0.763   0.882   0.000   1.644
  599        0.756   0.865   0.000   1.621
  600        0.762   0.874   0.000   1.636
  601        0.757   0.894   0.000   1.650
  602        0.766   0.897   0.000   1.663
  603        0.759   0.899   0.000   1.658
  604        0.757   0.894   0.000   1.650
  605        0.768   0.923   0.000   1.690
  606        0.758   0.928   0.000   1.686
  607        0.757   0.876   0.000   1.633
  608        0.765   0.837   0.000   1.602
  609        0.757   0.893   0.000   1.651
  610        0.756   0.891   0.000   1.647
  611        0.770   0.817   0.000   1.587
  612        0.756   0.906   0.000   1.663
  613        0.755   0.902   0.000   1.657
  614        0.766   0.899   0.000   1.665
  615        0.768   0.841   0.000   1.609
  616        0.764   0.866   0.000   1.630
  617        0.762   0.864   0.000   1.627
  618        0.762   0.912   0.000   1.675
  619        0.762   0.854   0.000   1.616
  620        0.757   0.906   0.000   1.662
  621        0.767   0.863   0.000   1.630
  622        0.768   0.892   0.000   1.660
  623        0.758   0.921   0.000   1.678
  624        0.762   0.852   0.000   1.615
  625        0.761   0.881   0.000   1.642
  626        0.756   0.885   0.000   1.641
  627        0.761   0.898   0.000   1.659
  628        0.760   0.930   0.000   1.691
  629        0.761   0.884   0.000   1.645
  630        0.754   0.841   0.000   1.595
  631        0.763   0.868   0.000   1.631
  632        0.764   0.848   0.000   1.612
  633        0.768   0.909   0.000   1.677
  634        0.759   0.879   0.000   1.638
  635        0.761   0.848   0.000   1.609
  636        0.762   0.862   0.000   1.623
  637        0.777   0.879   0.000   1.656
  638        0.790   0.789   0.000   1.579
  639        0.756   0.873   0.000   1.630
  640        0.755   0.883   0.000   1.637
  641        0.758   0.873   0.000   1.631
  642        0.768   0.868   0.000   1.636
  643        0.756   0.875   0.000   1.631
  644        0.758   0.902   0.000   1.660
  645        0.762   0.891   0.000   1.654
  646        0.762   0.897   0.000   1.659
  647        0.770   0.798   0.000   1.568
  648        0.767   0.856   0.000   1.623
  649        0.760   0.862   0.000   1.622
  650        0.759   0.887   0.000   1.646
  651        0.761   0.909   0.000   1.670
  652        0.757   0.908   0.000   1.665
  653        0.764   0.873   0.000   1.637
  654        0.760   0.895   0.000   1.655
  655        0.759   0.910   0.000   1.668
  656        0.756   0.889   0.000   1.645
  657        0.781   0.892   0.000   1.674
  658        0.763   0.850   0.000   1.612
  659        0.760   0.875   0.000   1.636
  660        0.763   0.884   0.000   1.647
  661        0.759   0.880   0.000   1.639
  662        0.767   0.869   0.000   1.635
  663        0.758   0.906   0.000   1.664
  664        0.765   0.923   0.000   1.689
  665        0.769   0.869   0.000   1.638
  666        0.761   0.916   0.000   1.677
  667        0.757   0.924   0.000   1.680
  668        0.761   0.870   0.000   1.631
  669        0.768   0.862   0.000   1.630
  670        0.759   0.872   0.000   1.631
  671        0.769   0.860   0.000   1.628
  672        0.775   0.881   0.000   1.656
  673        0.760   0.878   0.000   1.638
  674        0.759   0.867   0.000   1.627
  675        0.759   0.911   0.000   1.670
  676        0.755   0.907   0.000   1.662
  677        0.758   0.912   0.000   1.670
  678        0.754   0.858   0.000   1.612
  679        0.767   0.832   0.000   1.600
  680        0.758   0.886   0.000   1.644
  681        0.760   0.874   0.000   1.633
  682        0.782   0.857   0.000   1.638
  683        0.756   0.904   0.000   1.660
  684        0.763   0.880   0.000   1.643
  685        0.759   0.910   0.000   1.669
  686        0.756   0.879   0.000   1.635
  687        0.759   0.863   0.000   1.622
  688        0.765   0.907   0.000   1.673
  689        0.791   0.752   0.000   1.544
  690        0.762   0.891   0.000   1.653
  691        0.768   0.881   0.000   1.649
  692        0.759   0.874   0.000   1.633
  693        0.757   0.877   0.000   1.635
  694        0.768   0.850   0.000   1.618
  695        0.762   0.868   0.000   1.630
  696        0.771   0.819   0.000   1.590
  697        0.761   0.854   0.000   1.615
  698        0.759   0.914   0.000   1.673
  699        0.760   0.886   0.000   1.646
  700        0.774   0.796   0.000   1.570
  701        0.757   0.916   0.000   1.674
  702        0.758   0.920   0.000   1.678
  703        0.790   0.851   0.000   1.641
  704        0.765   0.887   0.000   1.652
  705        0.758   0.906   0.000   1.665
  706        0.778   0.807   0.000   1.584
  707        0.782   0.845   0.000   1.627
  708        0.755   0.899   0.000   1.654
  709        0.758   0.886   0.000   1.644
  710        0.759   0.888   0.000   1.647
  711        0.763   0.853   0.000   1.616
  712        0.760   0.873   0.000   1.633
  713        0.758   0.889   0.000   1.646
  714        0.764   0.868   0.000   1.632
  715        0.761   0.873   0.000   1.634
  716        0.757   0.904   0.000   1.661
  717        0.757   0.904   0.000   1.661
  718        0.766   0.871   0.000   1.637
  719        0.758   0.865   0.000   1.623
  720        0.762   0.938   0.000   1.700
  721        0.760   0.881   0.000   1.642
  722        0.759   0.927   0.000   1.686
  723        0.759   0.922   0.000   1.681
  724        0.765   0.883   0.000   1.647
  725        0.762   0.836   0.000   1.599
  726        0.762   0.858   0.000   1.620
  727        0.756   0.880   0.000   1.636
  728        0.801   0.818   0.000   1.619
  729        0.757   0.887   0.000   1.644
  730        0.759   0.883   0.000   1.641
  731        0.758   0.898   0.000   1.656
  732        0.764   0.849   0.000   1.613
  733        0.809   0.803   0.000   1.611
  734        0.763   0.883   0.000   1.646
  735        0.757   0.934   0.000   1.691
  736        0.767   0.893   0.000   1.660
  737        0.760   0.885   0.000   1.645
  738        0.758   0.893   0.000   1.651
  739        0.754   0.908   0.000   1.663
  740        0.758   0.929   0.000   1.687
  741        0.760   0.898   0.000   1.658
  742        0.761   0.893   0.000   1.654
  743        0.757   0.896   0.000   1.653
  744        0.758   0.892   0.000   1.650
  745        0.761   0.912   0.000   1.673
  746        0.759   0.859   0.000   1.618
  747        0.761   0.879   0.000   1.641
  748        0.757   0.917   0.000   1.673
  749        0.762   0.883   0.000   1.645
  750        0.771   0.850   0.000   1.621
  751        0.759   0.934   0.000   1.693
  752        0.754   0.917   0.000   1.672
  753        0.768   0.883   0.000   1.651
  754        0.759   0.919   0.000   1.678
  755        0.764   0.904   0.000   1.668
  756        0.760   0.884   0.000   1.643
  757        0.765   0.868   0.000   1.633
  758        0.758   0.877   0.000   1.635
  759        0.764   0.814   0.000   1.578
  760        0.753   0.900   0.000   1.653
  761        0.757   0.882   0.000   1.640
  762        0.766   0.906   0.000   1.672
  763        0.758   0.853   0.000   1.611
  764        0.763   0.931   0.000   1.694
  765        0.761   0.889   0.000   1.649
  766        0.763   0.901   0.000   1.665
  767        0.783   0.821   0.000   1.603
  768        0.759   0.898   0.000   1.656
  769        0.760   0.903   0.000   1.662
  770        0.757   0.921   0.000   1.678
  771        0.759   0.916   0.000   1.676
  772        0.761   0.902   0.000   1.663
  773        0.764   0.879   0.000   1.643
  774        0.769   0.816   0.000   1.585
  775        0.765   0.885   0.000   1.649
  776        0.799   0.829   0.000   1.629
  777        0.758   0.898   0.000   1.657
  778        0.760   0.857   0.000   1.617
  779        0.754   0.930   0.000   1.684
  780        0.757   0.891   0.000   1.648
  781        0.773   0.860   0.000   1.633
  782        0.758   0.920   0.000   1.678
  783        0.782   0.871   0.000   1.653
  784        0.758   0.872   0.000   1.630
  785        0.764   0.858   0.000   1.622
  786        0.766   0.831   0.000   1.597
  787        0.761   0.871   0.000   1.633
  788        0.757   0.954   0.000   1.711
  789        0.762   0.900   0.000   1.663
  790        0.754   0.863   0.000   1.617
  791        0.763   0.893   0.000   1.656
  792        0.760   0.896   0.000   1.655
  793        0.759   0.913   0.000   1.672
  794        0.759   0.882   0.000   1.641
  795        0.764   0.911   0.000   1.675
  796        0.769   0.882   0.000   1.651
  797        0.774   0.893   0.000   1.666
  798        0.761   0.870   0.000   1.631
  799        0.762   0.911   0.000   1.673
  800        0.755   0.909   0.000   1.664
  801        0.757   0.894   0.000   1.652
  802        0.764   0.905   0.000   1.669
  803        0.766   0.870   0.000   1.636
  804        0.759   0.890   0.000   1.649
  805        0.760   0.908   0.000   1.668
  806        0.762   0.873   0.000   1.635
  807        0.758   0.930   0.000   1.687
  808        0.760   0.925   0.000   1.684
  809        0.769   0.879   0.000   1.647
  810        0.760   0.882   0.000   1.643
  811        0.772   0.866   0.000   1.638
  812        0.761   0.870   0.000   1.630
  813        0.763   0.897   0.000   1.660
  814        0.760   0.842   0.000   1.602
  815        0.761   0.848   0.000   1.609
  816        0.759   0.876   0.000   1.636
  817        0.763   0.835   0.000   1.598
  818        0.760   0.874   0.000   1.634
  819        0.758   0.871   0.000   1.629
  820        0.757   0.896   0.000   1.654
  821        0.764   0.832   0.000   1.596
  822        0.768   0.868   0.000   1.636
  823        0.764   0.844   0.000   1.609
  824        0.756   0.874   0.000   1.630
  825        0.763   0.855   0.000   1.619
  826        0.760   0.925   0.000   1.685
  827        0.764   0.848   0.000   1.612
  828        0.758   0.911   0.000   1.669
  829        0.772   0.802   0.000   1.574
  830        0.775   0.864   0.000   1.639
  831        0.757   0.920   0.000   1.677
  832        0.758   0.897   0.000   1.655
  833        0.756   0.872   0.000   1.628
  834        0.760   0.868   0.000   1.628
  835        0.757   0.917   0.000   1.674
  836        0.763   0.892   0.000   1.656
  837        0.761   0.853   0.000   1.614
  838        0.760   0.893   0.000   1.654
  839        0.749   0.865   0.000   1.614
  840        0.762   0.850   0.000   1.613
  841        0.759   0.914   0.000   1.674
  842        0.760   0.859   0.000   1.619
  843        0.762   0.839   0.000   1.601
  844        0.764   0.878   0.000   1.642
  845        0.760   0.864   0.000   1.624
  846        0.762   0.914   0.000   1.676
  847        0.767   0.881   0.000   1.648
  848        0.763   0.847   0.000   1.610
  849        0.760   0.914   0.000   1.675
  850        0.764   0.819   0.000   1.583
  851        0.760   0.903   0.000   1.663
  852        0.758   0.874   0.000   1.632
  853        0.764   0.869   0.000   1.633
  854        0.765   0.892   0.000   1.657
  855        0.770   0.815   0.000   1.585
  856        0.762   0.850   0.000   1.611
  857        0.757   0.858   0.000   1.615
  858        0.758   0.901   0.000   1.660
  859        0.761   0.873   0.000   1.633
  860        0.760   0.913   0.000   1.673
  861        0.763   0.867   0.000   1.630
  862        0.765   0.854   0.000   1.619
  863        0.791   0.843   0.000   1.634
  864        0.786   0.836   0.000   1.621
  865        0.767   0.874   0.000   1.641
  866        0.760   0.901   0.000   1.661
  867        0.756   0.906   0.000   1.662
  868        0.759   0.931   0.000   1.691
  869        0.755   0.918   0.000   1.673
  870        0.762   0.868   0.000   1.631
  871        0.771   0.852   0.000   1.623
  872        0.760   0.916   0.000   1.677
  873        0.757   0.903   0.000   1.660
  874        0.765   0.854   0.000   1.619
  875        0.758   0.855   0.000   1.613
  876        0.760   0.942   0.000   1.702
  877        0.758   0.865   0.000   1.623
  878        0.763   0.903   0.000   1.665
  879        0.766   0.853   0.000   1.619
  880        0.760   0.907   0.000   1.667
  881        0.771   0.849   0.000   1.619
  882        0.780   0.895   0.000   1.674
  883        0.760   0.933   0.000   1.693
  884        0.757   0.895   0.000   1.652
  885        0.815   0.838   0.000   1.653
  886        0.764   0.868   0.000   1.632
  887        0.759   0.919   0.000   1.678
  888        0.759   0.907   0.000   1.666
  889        0.760   0.920   0.000   1.680
  890        0.782   0.874   0.000   1.655
  891        0.773   0.845   0.000   1.618
  892        0.764   0.868   0.000   1.632
  893        0.766   0.835   0.000   1.601
  894        0.747   0.858   0.000   1.605
  895        0.758   0.882   0.000   1.640
  896        0.767   0.880   0.000   1.647
  897        0.764   0.886   0.000   1.650
  898        0.757   0.890   0.000   1.647
  899        0.761   0.871   0.000   1.632
  900        0.798   0.792   0.000   1.590
  901        0.759   0.861   0.000   1.620
  902        0.760   0.889   0.000   1.649
  903        0.760   0.887   0.000   1.646
  904        0.758   0.910   0.000   1.668
  905        0.761   0.875   0.000   1.636
  906        0.759   0.917   0.000   1.675
  907        0.760   0.848   0.000   1.607
  908        0.786   0.811   0.000   1.596
  909        0.757   0.888   0.000   1.645
  910        0.756   0.855   0.000   1.611
  911        0.766   0.820   0.000   1.586
  912        0.763   0.867   0.000   1.630
  913        0.763   0.927   0.000   1.690
  914        0.759   0.875   0.000   1.634
  915        0.761   0.911   0.000   1.672
  916        0.755   0.919   0.000   1.675
  917        0.760   0.876   0.000   1.636
  918        0.760   0.896   0.000   1.655
  919        0.765   0.903   0.000   1.668
  920        0.759   0.883   0.000   1.643
  921        0.757   0.896   0.000   1.653
  922        0.756   0.865   0.000   1.620
  923        0.765   0.862   0.000   1.627
  924        0.763   0.904   0.000   1.666
  925        0.760   0.890   0.000   1.650
  926        0.771   0.818   0.000   1.589
  927        0.757   0.914   0.000   1.671
  928        0.758   0.883   0.000   1.642
  929        0.757   0.910   0.000   1.667
  930        0.758   0.880   0.000   1.638
  931        0.761   0.909   0.000   1.670
  932        0.774   0.912   0.000   1.686
  933        0.793   0.863   0.000   1.656
  934        0.761   0.915   0.000   1.675
  935        0.753   0.864   0.000   1.617
  936        0.786   0.767   0.000   1.554
  937        0.764   0.857   0.000   1.621
  938        0.764   0.861   0.000   1.625
  939        0.761   0.829   0.000   1.590
  940        0.757   0.870   0.000   1.627
  941        0.761   0.886   0.000   1.647
  942        0.772   0.819   0.000   1.591
  943        0.763   0.896   0.000   1.659
  944        0.760   0.894   0.000   1.654
  945        0.761   0.849   0.000   1.609
  946        0.766   0.882   0.000   1.647
  947        0.745   0.843   0.000   1.588
  948        0.760   0.936   0.000   1.696
  949        0.769   0.856   0.000   1.625
  950        0.759   0.860   0.000   1.618
  951        0.767   0.856   0.000   1.623
  952        0.759   0.846   0.000   1.605
  953        0.756   0.891   0.000   1.646
  954        0.805   0.833   0.000   1.638
  955        0.777   0.815   0.000   1.593
  956        0.760   0.929   0.000   1.689
  957        0.775   0.879   0.000   1.655
  958        0.760   0.936   0.000   1.696
  959        0.761   0.874   0.000   1.635
  960        0.759   0.867   0.000   1.626
  961        0.767   0.852   0.000   1.619
  962        0.764   0.872   0.000   1.636
  963        0.769   0.892   0.000   1.661
  964        0.759   0.861   0.000   1.620
  965        0.763   0.867   0.000   1.630
  966        0.763   0.853   0.000   1.616
  967        0.766   0.830   0.000   1.596
  968        0.766   0.852   0.000   1.617
  969        0.796   0.820   0.000   1.616
  970        0.761   0.870   0.000   1.631
  971        0.762   0.925   0.000   1.687
  972        0.757   0.898   0.000   1.655
  973        0.772   0.830   0.000   1.601
  974        0.759   0.889   0.000   1.648
  975        0.758   0.894   0.000   1.652
  976        0.767   0.831   0.000   1.599
  977        0.763   0.851   0.000   1.614
  978        0.762   0.897   0.000   1.660
  979        0.764   0.890   0.000   1.654
  980        0.755   0.922   0.000   1.677
  981        0.775   0.842   0.000   1.617
  982        0.775   0.860   0.000   1.635
  983        0.767   0.858   0.000   1.624
  984        0.763   0.866   0.000   1.629
  985        0.761   0.862   0.000   1.623
  986        0.759   0.913   0.000   1.673
  987        0.763   0.860   0.000   1.623
  988        0.764   0.879   0.000   1.643
  989        0.781   0.848   0.000   1.629
  990        0.757   0.858   0.000   1.615
  991        0.764   0.886   0.000   1.650
  992        0.759   0.881   0.000   1.639
  993        0.788   0.833   0.000   1.621
  994        0.765   0.829   0.000   1.595
  995        0.756   0.884   0.000   1.640
  996        0.759   0.890   0.000   1.649
  997        0.768   0.885   0.000   1.653
  998        0.759   0.880   0.000   1.639
  999        0.756   0.920   0.000   1.676
 1000        0.774   0.818   0.000   1.591
--------------------------------------------------
tot        763.316 878.346   0.0001641.662
 

 total amount of memory used by VASP MPI-rank0   103170. kBytes
=======================================================================

   base      :      30000. kBytes
   nonlr-proj:       8409. kBytes
   fftplans  :      13764. kBytes
   grid      :      23070. kBytes
   one-center:         43. kBytes
   wavefun   :      27884. kBytes
 
  
  
 General timing and accounting informations for this job:
 ========================================================
  
                  Total CPU time used (sec):     1719.760
                            User time (sec):     1569.393
                          System time (sec):      150.367
                         Elapsed time (sec):     1772.898
  
                   Maximum memory used (kb):      679320.
                   Average memory used (kb):           0.
  
                          Minor page faults:       887556
                          Major page faults:           61
                 Voluntary context switches:        23525
